 vasp.5.4.4.18Apr17-6-g9f103f2a35 (build Jun 20 2017 18:00:50) complex          
  
 executed on             LinuxIFC date 2020.05.13  10:11:00
 running on  256 total cores
 distrk:  each k-point on  128 cores,    2 groups
 distr:  one band on NCORES_PER_BAND=   8 cores,   16 groups


--------------------------------------------------------------------------------------------------------


 INCAR:
 POTCAR:    PAW_PBE Y_sv 25May2007                
 POTCAR:    PAW_PBE Ti 08Apr2002                  
 POTCAR:    PAW_PBE S 06Sep2000                   
 POTCAR:    PAW_PBE O 08Apr2002                   

 ----------------------------------------------------------------------------- 
|                                                                             |
|           W    W    AA    RRRRR   N    N  II  N    N   GGGG   !!!           |
|           W    W   A  A   R    R  NN   N  II  NN   N  G    G  !!!           |
|           W    W  A    A  R    R  N N  N  II  N N  N  G       !!!           |
|           W WW W  AAAAAA  RRRRR   N  N N  II  N  N N  G  GGG   !            |
|           WW  WW  A    A  R   R   N   NN  II  N   NN  G    G                |
|           W    W  A    A  R    R  N    N  II  N    N   GGGG   !!!           |
|                                                                             |
|      You have enabled k-point parallelism (KPAR>1).                         |
|      This developmental code was originally  written by Paul Kent at ORNL,  |
|      and carefully double checked in Vienna.                                |
|      GW as well as linear response parallelism added by Martijn Marsman     |
|      and Georg Kresse.                                                      |
|      Carefully verify results versus KPAR=1.                                |
|      Report problems to Paul Kent and Vienna.                               |
|                                                                             |
 ----------------------------------------------------------------------------- 

 POTCAR:    PAW_PBE Y_sv 25May2007                
   VRHFIN =Y: 4s4p5s4d                                                          
   LEXCH  = PE                                                                  
   EATOM  =  1046.9140 eV,   76.9460 Ry                                         
                                                                                
   TITEL  = PAW_PBE Y_sv 25May2007                                              
   LULTRA =        F    use ultrasoft PP ?                                      
   IUNSCR =        1    unscreen: 0-lin 1-nonlin 2-no                           
   RPACOR =    2.200    partial core radius                                     
   POMASS =   88.906; ZVAL   =   11.000    mass and valenz                      
   RCORE  =    2.800    outmost cutoff radius                                   
   RWIGS  =    3.430; RWIGS  =    1.815    wigner-seitz radius (au A)           
   ENMAX  =  202.626; ENMIN  =  151.970 eV                                      
   RCLOC  =    2.212    cutoff for local pot                                    
   LCOR   =        T    correct aug charges                                     
   LPAW   =        T    paw PP                                                  
   EAUG   =  470.889                                                            
   DEXC   =    0.000                                                            
   RMAX   =    2.863    core radius for proj-oper                               
   RAUG   =    1.300    factor for augmentation sphere                          
   RDEP   =    2.926    radius for radial grids                                 
   RDEPT  =    2.280    core radius for aug-charge                              
                                                                                
   Atomic configuration                                                         
   11 entries                                                                   
     n  l   j            E        occ.                                          
     1  0  0.50    -16863.0720   2.0000                                         
     2  0  0.50     -2309.2881   2.0000                                         
     2  1  1.50     -2055.5536   6.0000                                         
     3  0  0.50      -367.1837   2.0000                                         
     3  1  1.50      -284.8912   6.0000                                         
     3  2  2.50      -149.4324  10.0000                                         
     4  0  0.50       -46.3345   2.0000                                         
     5  0  0.50        -3.6387   1.0000                                         
     4  1  1.50       -26.3769   6.0000                                         
     4  2  2.50        -1.6291   2.0000                                         
     4  3  2.50        -1.3606   0.0000                                         
   Description                                                                  
     l       E           TYP  RCUT    TYP  RCUT                                 
     0    -46.3344714     23  2.600                                             
     0     -3.6387002     23  2.700                                             
     1    -26.3769044     23  2.600                                             
     1    -27.7374870     23  2.600                                             
     2     -1.6291019     23  2.600                                             
     2      0.1354037     23  2.600                                             
     3     -1.3605826     23  2.800                                             
  local pseudopotential read in
  partial core-charges read in
  partial kinetic energy density read in
  atomic valenz-charges read in
  non local Contribution for L=           0  read in
    real space projection operators read in
  non local Contribution for L=           0  read in
    real space projection operators read in
  non local Contribution for L=           1  read in
    real space projection operators read in
  non local Contribution for L=           1  read in
    real space projection operators read in
  non local Contribution for L=           2  read in
    real space projection operators read in
  non local Contribution for L=           2  read in
    real space projection operators read in
  non local Contribution for L=           3  read in
    real space projection operators read in
    PAW grid and wavefunctions read in
 
   number of l-projection  operators is LMAX  =           7
   number of lm-projection operators is LMMAX =          25
 
 POTCAR:    PAW_PBE Ti 08Apr2002                  
   VRHFIN =Ti: d3 s1                                                            
   LEXCH  = PE                                                                  
   EATOM  =    94.7928 eV,    6.9671 Ry                                         
                                                                                
   TITEL  = PAW_PBE Ti 08Apr2002                                                
   LULTRA =        F    use ultrasoft PP ?                                      
   IUNSCR =        1    unscreen: 0-lin 1-nonlin 2-no                           
   RPACOR =    2.200    partial core radius                                     
   POMASS =   47.880; ZVAL   =    4.000    mass and valenz                      
   RCORE  =    2.800    outmost cutoff radius                                   
   RWIGS  =    2.500; RWIGS  =    1.323    wigner-seitz radius (au A)           
   ENMAX  =  178.330; ENMIN  =  133.747 eV                                      
   RCLOC  =    2.215    cutoff for local pot                                    
   LCOR   =        T    correct aug charges                                     
   LPAW   =        T    paw PP                                                  
   EAUG   =  328.883                                                            
   DEXC   =    0.000                                                            
   RMAX   =    2.868    core radius for proj-oper                               
   RAUG   =    1.300    factor for augmentation sphere                          
   RDEP   =    2.885    radius for radial grids                                 
   RDEPT  =    2.320    core radius for aug-charge                              
                                                                                
   Atomic configuration                                                         
    9 entries                                                                   
     n  l   j            E        occ.                                          
     1  0  0.50     -4865.3608   2.0000                                         
     2  0  0.50      -533.1367   2.0000                                         
     2  1  1.50      -440.5031   6.0000                                         
     3  0  0.50       -59.3186   2.0000                                         
     3  1  1.50       -35.7012   6.0000                                         
     3  2  2.50        -1.9157   3.0000                                         
     4  0  0.50        -3.7291   1.0000                                         
     4  1  1.50        -4.0817   0.0000                                         
     4  3  2.50        -1.3606   0.0000                                         
   Description                                                                  
     l       E           TYP  RCUT    TYP  RCUT                                 
     2     -1.9156924     23  2.800                                             
     2     -0.4062961     23  2.800                                             
     0     -3.7290832     23  2.800                                             
     0     20.4087390     23  2.800                                             
     1     -5.4423304     23  2.800                                             
  local pseudopotential read in
  partial core-charges read in
  partial kinetic energy density read in
  atomic valenz-charges read in
  non local Contribution for L=           2  read in
    real space projection operators read in
  non local Contribution for L=           2  read in
    real space projection operators read in
  non local Contribution for L=           0  read in
    real space projection operators read in
  non local Contribution for L=           0  read in
    real space projection operators read in
  non local Contribution for L=           1  read in
    real space projection operators read in
    PAW grid and wavefunctions read in
 
   number of l-projection  operators is LMAX  =           5
   number of lm-projection operators is LMMAX =          15
 
 POTCAR:    PAW_PBE S 06Sep2000                   
   VRHFIN =S : s2p4                                                             
   LEXCH  = PE                                                                  
   EATOM  =   276.8230 eV,   20.3459 Ry                                         
                                                                                
   TITEL  = PAW_PBE S 06Sep2000                                                 
   LULTRA =        F    use ultrasoft PP ?                                      
   IUNSCR =        1    unscreen: 0-lin 1-nonlin 2-no                           
   RPACOR =    1.500    partial core radius                                     
   POMASS =   32.066; ZVAL   =    6.000    mass and valenz                      
   RCORE  =    1.900    outmost cutoff radius                                   
   RWIGS  =    2.200; RWIGS  =    1.164    wigner-seitz radius (au A)           
   ENMAX  =  258.689; ENMIN  =  194.016 eV                                      
   ICORE  =        2    local potential                                         
   LCOR   =        T    correct aug charges                                     
   LPAW   =        T    paw PP                                                  
   EAUG   =  335.092                                                            
   DEXC   =    0.000                                                            
   RMAX   =    1.942    core radius for proj-oper                               
   RAUG   =    1.300    factor for augmentation sphere                          
   RDEP   =    1.954    radius for radial grids                                 
   RDEPT  =    1.744    core radius for aug-charge                              
                                                                                
   Atomic configuration                                                         
    6 entries                                                                   
     n  l   j            E        occ.                                          
     1  0  0.50     -2405.8406   2.0000                                         
     2  0  0.50      -211.7007   2.0000                                         
     2  1  1.50      -156.4958   6.0000                                         
     3  0  0.50       -17.2562   2.0000                                         
     3  1  0.50        -7.0085   4.0000                                         
     3  2  1.50        -6.8029   0.0000                                         
   Description                                                                  
     l       E           TYP  RCUT    TYP  RCUT                                 
     0    -17.2561641     23  1.900                                             
     0    -15.8743224     23  1.900                                             
     1     -7.0085400     23  1.900                                             
     1     -2.7779785     23  1.900                                             
     2     -6.8029130     23  1.900                                             
  local pseudopotential read in
  partial core-charges read in
  partial kinetic energy density read in
  atomic valenz-charges read in
  non local Contribution for L=           0  read in
    real space projection operators read in
  non local Contribution for L=           0  read in
    real space projection operators read in
  non local Contribution for L=           1  read in
    real space projection operators read in
  non local Contribution for L=           1  read in
    real space projection operators read in
    PAW grid and wavefunctions read in
 
   number of l-projection  operators is LMAX  =           4
   number of lm-projection operators is LMMAX =           8
 
 POTCAR:    PAW_PBE O 08Apr2002                   
   VRHFIN =O: s2p4                                                              
   LEXCH  = PE                                                                  
   EATOM  =   432.3788 eV,   31.7789 Ry                                         
                                                                                
   TITEL  = PAW_PBE O 08Apr2002                                                 
   LULTRA =        F    use ultrasoft PP ?                                      
   IUNSCR =        1    unscreen: 0-lin 1-nonlin 2-no                           
   RPACOR =    1.200    partial core radius                                     
   POMASS =   16.000; ZVAL   =    6.000    mass and valenz                      
   RCORE  =    1.520    outmost cutoff radius                                   
   RWIGS  =    1.550; RWIGS  =    0.820    wigner-seitz radius (au A)           
   ENMAX  =  400.000; ENMIN  =  300.000 eV                                      
   ICORE  =        2    local potential                                         
   LCOR   =        T    correct aug charges                                     
   LPAW   =        T    paw PP                                                  
   EAUG   =  605.392                                                            
   DEXC   =    0.000                                                            
   RMAX   =    1.553    core radius for proj-oper                               
   RAUG   =    1.300    factor for augmentation sphere                          
   RDEP   =    1.550    radius for radial grids                                 
   RDEPT  =    1.329    core radius for aug-charge                              
                                                                                
   Atomic configuration                                                         
    4 entries                                                                   
     n  l   j            E        occ.                                          
     1  0  0.50      -514.6923   2.0000                                         
     2  0  0.50       -23.9615   2.0000                                         
     2  1  0.50        -9.0305   4.0000                                         
     3  2  1.50        -9.5241   0.0000                                         
   Description                                                                  
     l       E           TYP  RCUT    TYP  RCUT                                 
     0    -23.9615318     23  1.200                                             
     0     -9.5240782     23  1.200                                             
     1     -9.0304911     23  1.520                                             
     1      8.1634956     23  1.520                                             
     2     -9.5240782      7  1.500                                             
  local pseudopotential read in
  partial core-charges read in
  partial kinetic energy density read in
  kinetic energy density of atom read in
  atomic valenz-charges read in
  non local Contribution for L=           0  read in
    real space projection operators read in
  non local Contribution for L=           0  read in
    real space projection operators read in
  non local Contribution for L=           1  read in
    real space projection operators read in
  non local Contribution for L=           1  read in
    real space projection operators read in
    PAW grid and wavefunctions read in
 
   number of l-projection  operators is LMAX  =           4
   number of lm-projection operators is LMMAX =           8
 
 Optimization of the real space projectors (new method)

 maximal supplied QI-value         = 13.42
 optimisation between [QCUT,QGAM] = [ 11.67, 23.35] = [ 38.16,152.62] Ry 
 Optimized for a Real-space Cutoff    1.68 Angstroem

   l    n(q)    QCUT    max X(q) W(low)/X(q) W(high)/X(q)  e(spline) 
   0     12    11.673    14.902    0.22E-04    0.24E-05    0.52E-07
   0     12    11.673     9.294    0.34E-04    0.58E-05    0.89E-07
   1     11    11.673    69.520    0.10E-04    0.47E-04    0.49E-06
   1     11    11.673    72.085    0.10E-04    0.48E-04    0.50E-06
   2     11    11.673    62.934    0.94E-04    0.14E-04    0.82E-06
   2     11    11.673    49.749    0.91E-04    0.13E-04    0.79E-06
   3     10    11.673     8.311    0.92E-04    0.21E-04    0.59E-06
 Optimization of the real space projectors (new method)

 maximal supplied QI-value         = 13.42
 optimisation between [QCUT,QGAM] = [ 11.67, 23.35] = [ 38.16,152.62] Ry 
 Optimized for a Real-space Cutoff    1.58 Angstroem

   l    n(q)    QCUT    max X(q) W(low)/X(q) W(high)/X(q)  e(spline) 
   2     10    11.673    49.363    0.16E-03    0.28E-03    0.91E-06
   2     10    11.673    47.669    0.16E-03    0.27E-03    0.88E-06
   0     11    11.673    26.374    0.54E-04    0.10E-03    0.52E-06
   0     11    11.673    11.549    0.41E-04    0.83E-04    0.43E-06
   1     11    11.673     9.492    0.36E-04    0.11E-04    0.17E-06
 Optimization of the real space projectors (new method)

 maximal supplied QI-value         = 19.84
 optimisation between [QCUT,QGAM] = [ 11.51, 23.22] = [ 37.09,150.92] Ry 
 Optimized for a Real-space Cutoff    1.21 Angstroem

   l    n(q)    QCUT    max X(q) W(low)/X(q) W(high)/X(q)  e(spline) 
   0      8    11.508   187.594    0.96E-04    0.18E-03    0.54E-07
   0      8    11.508   164.243    0.96E-04    0.18E-03    0.54E-07
   1      8    11.508    67.533    0.18E-03    0.65E-04    0.94E-07
   1      8    11.508    50.729    0.18E-03    0.63E-04    0.92E-07
 Optimization of the real space projectors (new method)

 maximal supplied QI-value         = 24.76
 optimisation between [QCUT,QGAM] = [ 11.64, 23.27] = [ 37.91,151.63] Ry 
 Optimized for a Real-space Cutoff    1.14 Angstroem

   l    n(q)    QCUT    max X(q) W(low)/X(q) W(high)/X(q)  e(spline) 
   0      8    11.635    20.381    0.10E-03    0.33E-03    0.24E-06
   0      8    11.635    15.268    0.11E-03    0.35E-03    0.26E-06
   1      7    11.635     5.964    0.24E-03    0.31E-03    0.30E-06
   1      7    11.635     5.382    0.22E-03    0.25E-03    0.26E-06

 ----------------------------------------------------------------------------- 
|                                                                             |
|  ADVICE TO THIS USER RUNNING 'VASP/VAMP'   (HEAR YOUR MASTER'S VOICE ...):  |
|                                                                             |
|      You enforced a specific xc-type in the INCAR file,                     |
|      a different type was found on the POTCAR file                          |
|          I HOPE YOU KNOW, WHAT YOU ARE  DOING                               |
|                                                                             |
 ----------------------------------------------------------------------------- 

  PAW_PBE Y_sv 25May2007                :
 energy of atom  1       EATOM=-1046.9140
 kinetic energy error for atom=    0.0008 (will be added to EATOM!!)
  PAW_PBE Ti 08Apr2002                  :
 energy of atom  2       EATOM=  -94.7928
 kinetic energy error for atom=    0.0002 (will be added to EATOM!!)
  PAW_PBE S 06Sep2000                   :
 energy of atom  3       EATOM= -276.8230
 kinetic energy error for atom=    0.0016 (will be added to EATOM!!)
  PAW_PBE O 08Apr2002                   :
 energy of atom  4       EATOM= -432.3788
 kinetic energy error for atom=    0.0208 (will be added to EATOM!!)
 
 
 POSCAR: Y4 Ti4 S4 O10                           
  positions in direct lattice
  No initial velocities read in
 exchange correlation table for  LEXCH =       14
   RHO(1)=    0.500       N(1)  =     2000
   RHO(2)=  100.500       N(2)  =     4000
 


--------------------------------------------------------------------------------------------------------


 ion  position               nearest neighbor table
   1  0.500  0.500  0.639-  15 2.41  17 2.41  17 2.41  15 2.41  10 2.81  10 2.81  10 2.81  10 2.81
                             6 3.32   6 3.32   6 3.32   6 3.32
   2  0.000  0.000  0.361-  14 2.41  16 2.41  14 2.41  16 2.41   9 2.81   9 2.81   9 2.81   9 2.81
                             5 3.32   5 3.32   5 3.32   5 3.32
   3  0.000  0.000  0.472-  20 2.41  22 2.41  22 2.41  20 2.41  12 2.81  12 2.81  12 2.81  12 2.81
                            11 2.88   8 3.32   8 3.32   8 3.32   8 3.32
   4  0.500  0.500  0.528-  19 2.41  21 2.41  19 2.41  21 2.41  11 2.81  11 2.81  11 2.81  11 2.81
                            12 2.88   7 3.32   7 3.32   7 3.32   7 3.32
   5  0.500  0.500  0.390-  18 1.82  16 1.94  14 1.94  16 1.94  14 1.94   9 2.85   2 3.32   2 3.32
                             2 3.32   2 3.32
   6  0.000  0.000  0.610-  13 1.82  15 1.94  17 1.94  15 1.94  17 1.94  10 2.85   1 3.32   1 3.32
                             1 3.32   1 3.32
   7  0.000  0.000  0.557-  13 1.82  19 1.94  21 1.94  21 1.94  19 1.94  11 2.85   4 3.32   4 3.32
                             4 3.32   4 3.32
   8  0.500  0.500  0.443-  18 1.82  20 1.94  22 1.94  20 1.94  22 1.94  12 2.85   3 3.32   3 3.32
                             3 3.32   3 3.32
   9  0.500  0.500  0.348-   2 2.81   2 2.81   2 2.81   2 2.81   5 2.85
  10  0.000  0.000  0.652-   1 2.81   1 2.81   1 2.81   1 2.81   6 2.85
  11  0.000  0.000  0.515-   4 2.81   4 2.81   4 2.81   4 2.81   7 2.85   3 2.88
  12  0.500  0.500  0.485-   3 2.81   3 2.81   3 2.81   3 2.81   8 2.85   4 2.88
  13  0.000  0.000  0.583-   7 1.82   6 1.82
  14  0.000  0.500  0.383-   5 1.94   5 1.94   2 2.41   2 2.41
  15  0.000  0.500  0.617-   6 1.94   6 1.94   1 2.41   1 2.41
  16  0.500  0.000  0.383-   5 1.94   5 1.94   2 2.41   2 2.41
  17  0.500  0.000  0.617-   6 1.94   6 1.94   1 2.41   1 2.41
  18  0.500  0.500  0.417-   8 1.82   5 1.82
  19  0.500  0.000  0.550-   7 1.94   7 1.94   4 2.41   4 2.41
  20  0.500  0.000  0.450-   8 1.94   8 1.94   3 2.41   3 2.41
  21  0.000  0.500  0.550-   7 1.94   7 1.94   4 2.41   4 2.41
  22  0.000  0.500  0.450-   8 1.94   8 1.94   3 2.41   3 2.41
 
  LATTYP: Found a simple tetragonal cell.
 ALAT       =     3.7700230000
 C/A-ratio  =    18.0663460143
  
  Lattice vectors:
  
 A1 = (   3.7700230000,   0.0000000000,   0.0000000000)
 A2 = (   0.0000000000,   3.7700230000,   0.0000000000)
 A3 = (   0.0000000000,   0.0000000000,  68.1105400000)


Analysis of symmetry for initial positions (statically):
=====================================================================
 Subroutine PRICEL returns:
 Original cell was already a primitive cell.
 

 Routine SETGRP: Setting up the symmetry group for a 
 simple tetragonal supercell.


 Subroutine GETGRP returns: Found 16 space group operations
 (whereof  8 operations were pure point group operations)
 out of a pool of 16 trial point group operations.


The static configuration has the point symmetry C_4v.
 The point group associated with its full space group is D_4h.


Analysis of symmetry for dynamics (positions and initial velocities):
=====================================================================
 Subroutine PRICEL returns:
 Original cell was already a primitive cell.
 

 Routine SETGRP: Setting up the symmetry group for a 
 simple tetragonal supercell.


 Subroutine GETGRP returns: Found 16 space group operations
 (whereof  8 operations were pure point group operations)
 out of a pool of 16 trial point group operations.


The dynamic configuration has the point symmetry C_4v.
 The point group associated with its full space group is D_4h.


 Subroutine INISYM returns: Found 16 space group operations
 (whereof  8 operations are pure point group operations),
 and found     1 'primitive' translations

 
 
 KPOINTS: Automatic mesh                          

Automatic generation of k-mesh.
Space group operators:
 irot       det(A)        alpha          n_x          n_y          n_z        tau_x        tau_y        tau_z
    1     1.000000     0.000000     1.000000     0.000000     0.000000     0.000000     0.000000     0.000000
    2     1.000000    90.000000     0.000000     0.000000    -1.000000     0.000000     0.000000     0.000000
    3     1.000000   180.000000     0.000000     0.000000     1.000000     0.000000     0.000000     0.000000
    4     1.000000    90.000000     0.000000     0.000000     1.000000     0.000000     0.000000     0.000000
    5    -1.000000   180.000000     0.000000     1.000000     0.000000     0.000000     0.000000     0.000000
    6    -1.000000   180.000000     0.707107     0.707107     0.000000     0.000000     0.000000     0.000000
    7    -1.000000   180.000000     1.000000     0.000000     0.000000     0.000000     0.000000     0.000000
    8    -1.000000   180.000000     0.707107    -0.707107     0.000000     0.000000     0.000000     0.000000
    9    -1.000000     0.000000     1.000000     0.000000     0.000000     0.500000     0.500000     0.000000
   10    -1.000000    90.000000     0.000000     0.000000    -1.000000     0.500000     0.500000     0.000000
   11    -1.000000   180.000000     0.000000     0.000000     1.000000     0.500000     0.500000     0.000000
   12    -1.000000    90.000000     0.000000     0.000000     1.000000     0.500000     0.500000     0.000000
   13     1.000000   180.000000     0.000000     1.000000     0.000000     0.500000     0.500000     0.000000
   14     1.000000   180.000000     0.707107     0.707107     0.000000     0.500000     0.500000     0.000000
   15     1.000000   180.000000     1.000000     0.000000     0.000000     0.500000     0.500000     0.000000
   16     1.000000   180.000000     0.707107    -0.707107     0.000000     0.500000     0.500000     0.000000
 
 Subroutine IBZKPT returns following result:
 ===========================================
 
 Found     10 irreducible k-points:
 
 Following reciprocal coordinates:
            Coordinates               Weight
  0.000000  0.000000  0.000000      1.000000
  0.166667  0.000000  0.000000      4.000000
  0.333333  0.000000  0.000000      4.000000
  0.500000  0.000000  0.000000      2.000000
  0.166667  0.166667  0.000000      4.000000
  0.333333  0.166667  0.000000      8.000000
  0.500000  0.166667  0.000000      4.000000
  0.333333  0.333333  0.000000      4.000000
  0.500000  0.333333  0.000000      4.000000
  0.500000  0.500000  0.000000      1.000000
 
 Following cartesian coordinates:
            Coordinates               Weight
  0.000000  0.000000  0.000000      1.000000
  0.044208  0.000000  0.000000      4.000000
  0.088417  0.000000  0.000000      4.000000
  0.132625  0.000000  0.000000      2.000000
  0.044208  0.044208  0.000000      4.000000
  0.088417  0.044208  0.000000      8.000000
  0.132625  0.044208  0.000000      4.000000
  0.088417  0.088417  0.000000      4.000000
  0.132625  0.088417  0.000000      4.000000
  0.132625  0.132625  0.000000      1.000000
 


--------------------------------------------------------------------------------------------------------




 Dimension of arrays:
   k-points           NKPTS =     10   k-points in BZ     NKDIM =     10   number of bands    NBANDS=     96
   number of dos      NEDOS =   2000   number of ions     NIONS =     22
   non local maximal  LDIM  =      7   non local SUM 2l+1 LMDIM =     25
   total plane-waves  NPLWV = 401408
   max r-space proj   IRMAX =   8227   max aug-charges    IRDMAX=  30089
   dimension x,y,z NGX =    28 NGY =   28 NGZ =  512
   dimension x,y,z NGXF=    56 NGYF=   56 NGZF= 1024
   support grid    NGXF=    56 NGYF=   56 NGZF= 1024
   ions per type =               4   4   4  10
   NGX,Y,Z   is equivalent  to a cutoff of  12.35, 12.35, 12.50 a.u.
   NGXF,Y,Z  is equivalent  to a cutoff of  24.69, 24.69, 24.99 a.u.

 SYSTEM =  Generic Input                           
 POSCAR =  Y4 Ti4 S4 O10                           

 Startparameter for this run:
   NWRITE =      2    write-flag & timer
   PREC   = accura    normal or accurate (medium, high low for compatibility)
   ISTART =      0    job   : 0-new  1-cont  2-samecut
   ICHARG =      2    charge: 1-file 2-atom 10-const
   ISPIN  =      1    spin polarized calculation?
   LNONCOLLINEAR =      F non collinear calculations
   LSORBIT =      F    spin-orbit coupling
   INIWAV =      1    electr: 0-lowe 1-rand  2-diag
   LASPH  =      T    aspherical Exc in radial PAW
   METAGGA=      F    non-selfconsistent MetaGGA calc.

 Electronic Relaxation 1
   ENCUT  =  520.0 eV  38.22 Ry    6.18 a.u.   7.01  7.01126.64*2*pi/ulx,y,z
   ENINI  =  520.0     initial cutoff
   ENAUG  =  605.4 eV  augmentation charge cutoff
   NELM   =    200;   NELMIN=  2; NELMDL=  0     # of ELM steps 
   EDIFF  = 0.1E-05   stopping-criterion for ELM
   LREAL  =      T    real-space projection
   NLSPLINE    = F    spline interpolate recip. space projectors
   LCOMPAT=      F    compatible to vasp.4.4
   GGA_COMPAT  = T    GGA compatible to vasp.4.4-vasp.4.6
   LMAXPAW     = -100 max onsite density
   LMAXMIX     =    2 max onsite mixed and CHGCAR
   VOSKOWN=      0    Vosko Wilk Nusair interpolation
   ROPT   =   -0.00025  -0.00025  -0.00025  -0.00025
 Ionic relaxation
   EDIFFG = -.1E-01   stopping-criterion for IOM
   NSW    =      0    number of steps for IOM
   NBLOCK =      1;   KBLOCK =      1    inner block; outer block 
   IBRION =     -1    ionic relax: 0-MD 1-quasi-New 2-CG
   NFREE  =      0    steps in history (QN), initial steepest desc. (CG)
   ISIF   =      2    stress and relaxation
   IWAVPR =     11    prediction:  0-non 1-charg 2-wave 3-comb
   ISYM   =      2    0-nonsym 1-usesym 2-fastsym
   LCORR  =      T    Harris-Foulkes like correction to forces

   POTIM  = 0.5000    time-step for ionic-motion
   TEIN   =    0.0    initial temperature
   TEBEG  =    0.0;   TEEND  =   0.0 temperature during run
   SMASS  =  -3.00    Nose mass-parameter (am)
   estimated Nose-frequenzy (Omega)   =  0.10E-29 period in steps =****** mass=  -0.325E-27a.u.
   SCALEE = 1.0000    scale energy and forces
   NPACO  =    256;   APACO  = 16.0  distance and # of slots for P.C.
   PSTRESS=    0.0 pullay stress

  Mass of Ions in am
   POMASS =  88.91 47.88 32.07 16.00
  Ionic Valenz
   ZVAL   =  11.00  4.00  6.00  6.00
  Atomic Wigner-Seitz radii
   RWIGS  =  -1.00 -1.00 -1.00 -1.00
  virtual crystal weights 
   VCA    =   1.00  1.00  1.00  1.00
   NELECT =     144.0000    total number of electrons
   NUPDOWN=      -1.0000    fix difference up-down

 DOS related values:
   EMIN   =  10.00;   EMAX   =-10.00  energy-range for DOS
   EFERMI =   0.00
   ISMEAR =     0;   SIGMA  =   0.02  broadening in eV -4-tet -1-fermi 0-gaus

 Electronic relaxation 2 (details)
   IALGO  =     38    algorithm
   LDIAG  =      T    sub-space diagonalisation (order eigenvalues)
   LSUBROT=      F    optimize rotation matrix (better conditioning)
   TURBO    =      0    0=normal 1=particle mesh
   IRESTART =      0    0=no restart 2=restart with 2 vectors
   NREBOOT  =      0    no. of reboots
   NMIN     =      0    reboot dimension
   EREF     =   0.00    reference energy to select bands
   IMIX   =      4    mixing-type and parameters
     AMIX     =   0.40;   BMIX     =  1.00
     AMIX_MAG =   1.60;   BMIX_MAG =  1.00
     AMIN     =   0.05
     WC   =   100.;   INIMIX=   1;  MIXPRE=   1;  MAXMIX= -45

 Intra band minimization:
   WEIMIN = 0.0000     energy-eigenvalue tresh-hold
   EBREAK =  0.26E-08  absolut break condition
   DEPER  =   0.30     relativ break condition  

   TIME   =   0.40     timestep for ELM

  volume/ion in A,a.u.               =      44.00       296.95
  Fermi-wavevector in a.u.,A,eV,Ry     =   0.867418  1.639182 10.237204  0.752413
  Thomas-Fermi vector in A             =   1.985949
 
 Write flags
   LWAVE        =      F    write WAVECAR
   LDOWNSAMPLE  =      F    k-point downsampling of WAVECAR
   LCHARG       =      F    write CHGCAR
   LVTOT        =      F    write LOCPOT, total local potential
   LVHAR        =      T    write LOCPOT, Hartree potential only
   LELF         =      F    write electronic localiz. function (ELF)
   LORBIT       =     11    0 simple, 1 ext, 2 COOP (PROOUT), +10 PAW based schemes


 Dipole corrections
   LMONO  =      F    monopole corrections only (constant potential shift)
   LDIPOL =      F    correct potential (dipole corrections)
   IDIPOL =      0    1-x, 2-y, 3-z, 4-all directions 
   EPSILON=  1.0000000 bulk dielectric constant

 Core level calculations are selected ICORELEVEL =  1
 Exchange correlation treatment:
   GGA     =    PS    GGA type
   LEXCH   =    14    internal setting for exchange type
   VOSKOWN=      0    Vosko Wilk Nusair interpolation
   LHFCALC =     F    Hartree Fock is set to
   LHFONE  =     F    Hartree Fock one center treatment
   AEXX    =    0.0000 exact exchange contribution

 Linear response parameters
   LEPSILON=     F    determine dielectric tensor
   LRPA    =     F    only Hartree local field effects (RPA)
   LNABLA  =     F    use nabla operator in PAW spheres
   LVEL    =     F    velocity operator in full k-point grid
   LINTERFAST=   F  fast interpolation
   KINTER  =     0    interpolate to denser k-point grid
   CSHIFT  =0.1000    complex shift for real part using Kramers Kronig
   OMEGAMAX=  -1.0    maximum frequency
   DEG_THRESHOLD= 0.2000000E-02 threshold for treating states as degnerate
   RTIME   =   -0.100 relaxation time in fs
  (WPLASMAI=    0.000 imaginary part of plasma frequency in eV, 0.658/RTIME)
   DFIELD  = 0.0000000 0.0000000 0.0000000 field for delta impulse in time
 
 Orbital magnetization related:
   ORBITALMAG=     F  switch on orbital magnetization
   LCHIMAG   =     F  perturbation theory with respect to B field
   DQ        =  0.001000  dq finite difference perturbation B field
   LLRAUG    =     F  two centre corrections for induced B field



--------------------------------------------------------------------------------------------------------


 Static calculation
 charge density and potential will be updated during run
 non-spin polarized calculation
 Variant of blocked Davidson
 Davidson routine will perform the subspace rotation
 perform sub-space diagonalisation
    after iterative eigenvector-optimisation
 modified Broyden-mixing scheme, WC =      100.0
 initial mixing is a Kerker type mixing with AMIX =  0.4000 and BMIX =      1.0000
 Hartree-type preconditioning will be used
 using additional bands           24
 real space projection scheme for non local part
 use partial core corrections
 calculate Harris-corrections to forces 
   (improved forces if not selfconsistent)
 use gradient corrections 
 use of overlap-Matrix (Vanderbilt PP)
 Gauss-broadening in eV      SIGMA  =   0.02


--------------------------------------------------------------------------------------------------------


  energy-cutoff  :      520.00
  volume of cell :      968.06
      direct lattice vectors                 reciprocal lattice vectors
     3.770023000  0.000000000  0.000000000     0.265250371  0.000000000  0.000000000
     0.000000000  3.770023000  0.000000000     0.000000000  0.265250371  0.000000000
     0.000000000  0.000000000 68.110540000     0.000000000  0.000000000  0.014682015

  length of vectors
     3.770023000  3.770023000 68.110540000     0.265250371  0.265250371  0.014682015


 
 k-points in units of 2pi/SCALE and weight: Automatic mesh                          
   0.00000000  0.00000000  0.00000000       0.028
   0.04420840  0.00000000  0.00000000       0.111
   0.08841679  0.00000000  0.00000000       0.111
   0.13262519  0.00000000  0.00000000       0.056
   0.04420840  0.04420840  0.00000000       0.111
   0.08841679  0.04420840  0.00000000       0.222
   0.13262519  0.04420840  0.00000000       0.111
   0.08841679  0.08841679  0.00000000       0.111
   0.13262519  0.08841679  0.00000000       0.111
   0.13262519  0.13262519  0.00000000       0.028
 
 k-points in reciprocal lattice and weights: Automatic mesh                          
   0.00000000  0.00000000  0.00000000       0.028
   0.16666667  0.00000000  0.00000000       0.111
   0.33333333  0.00000000  0.00000000       0.111
   0.50000000  0.00000000  0.00000000       0.056
   0.16666667  0.16666667  0.00000000       0.111
   0.33333333  0.16666667  0.00000000       0.222
   0.50000000  0.16666667  0.00000000       0.111
   0.33333333  0.33333333  0.00000000       0.111
   0.50000000  0.33333333  0.00000000       0.111
   0.50000000  0.50000000  0.00000000       0.028
 
 position of ions in fractional coordinates (direct lattice) 
   0.50000000  0.50000000  0.63907700
   0.00000000  0.00000000  0.36092300
   0.00000000  0.00000000  0.47241000
   0.50000000  0.50000000  0.52759000
   0.50000000  0.50000000  0.38996200
   0.00000000  0.00000000  0.61003800
   0.00000000  0.00000000  0.55662900
   0.50000000  0.50000000  0.44337100
   0.50000000  0.50000000  0.34807000
   0.00000000  0.00000000  0.65193000
   0.00000000  0.00000000  0.51473600
   0.50000000  0.50000000  0.48526400
   0.00000000  0.00000000  0.58333300
   0.00000000  0.50000000  0.38295900
   0.00000000  0.50000000  0.61704100
   0.50000000  0.00000000  0.38295900
   0.50000000  0.00000000  0.61704100
   0.50000000  0.50000000  0.41666700
   0.50000000  0.00000000  0.54962500
   0.50000000  0.00000000  0.45037500
   0.00000000  0.50000000  0.54962500
   0.00000000  0.50000000  0.45037500
 
 position of ions in cartesian coordinates  (Angst):
   1.88501150  1.88501150 43.52787957
   0.00000000  0.00000000 24.58266043
   0.00000000  0.00000000 32.17610020
   1.88501150  1.88501150 35.93443980
   1.88501150  1.88501150 26.56052240
   0.00000000  0.00000000 41.55001760
   0.00000000  0.00000000 37.91230177
   1.88501150  1.88501150 30.19823823
   1.88501150  1.88501150 23.70723566
   0.00000000  0.00000000 44.40330434
   0.00000000  0.00000000 35.05894692
   1.88501150  1.88501150 33.05159308
   0.00000000  0.00000000 39.73112563
   0.00000000  1.88501150 26.08354429
   0.00000000  1.88501150 42.02699571
   1.88501150  0.00000000 26.08354429
   1.88501150  0.00000000 42.02699571
   1.88501150  1.88501150 28.37941437
   1.88501150  0.00000000 37.43525555
   1.88501150  0.00000000 30.67528445
   0.00000000  1.88501150 37.43525555
   0.00000000  1.88501150 30.67528445
 


--------------------------------------------------------------------------------------------------------


 k-point  1 :   0.0000 0.0000 0.0000  plane waves:   25769
 k-point  2 :   0.1667 0.0000 0.0000  plane waves:   25902
 k-point  3 :   0.3333 0.0000 0.0000  plane waves:   25998
 k-point  4 :   0.5000 0.0000 0.0000  plane waves:   26090
 k-point  5 :   0.1667 0.1667 0.0000  plane waves:   26000
 k-point  6 :   0.3333 0.1667 0.0000  plane waves:   26086
 k-point  7 :   0.5000 0.1667 0.0000  plane waves:   26144
 k-point  8 :   0.3333 0.3333 0.0000  plane waves:   26132
 k-point  9 :   0.5000 0.3333 0.0000  plane waves:   26152
 k-point 10 :   0.5000 0.5000 0.0000  plane waves:   26108

 maximum and minimum number of plane-waves per node :      3322     3190

 maximum number of plane-waves:     26152
 maximum index in each direction: 
   IXMAX=    7   IYMAX=    7   IZMAX=  126
   IXMIN=   -7   IYMIN=   -7   IZMIN= -126


 real space projection operators:
  total allocation   :      11655.11 KBytes
  max/ min on nodes  :       1650.75       1257.55


 parallel 3D FFT for wavefunctions:
    minimum data exchange during FFTs selected (reduces bandwidth)
 parallel 3D FFT for charge:
    minimum data exchange during FFTs selected (reduces bandwidth)


 total amount of memory used by VASP MPI-rank0    48253. kBytes
=======================================================================

   base      :      30000. kBytes
   nonlr-proj:       5119. kBytes
   fftplans  :       3420. kBytes
   grid      :       6430. kBytes
   one-center:         90. kBytes
   wavefun   :       3194. kBytes
 
     INWAV:  cpu time    0.0000: real time    0.0000
 Broyden mixing: mesh for mixing (old mesh)
   NGX = 15   NGY = 15   NGZ =253
  (NGX  = 56   NGY  = 56   NGZ  =***)
  gives a total of  56925 points

 initial charge density was supplied:
 charge density of overlapping atoms calculated
 number of electron     144.0000000 magnetization 
 keeping initial charge density in first step


--------------------------------------------------------------------------------------------------------


 Maximum index for non-local projection operator         1226
 Maximum index for augmentation-charges         1142 (set IRDMAX)


--------------------------------------------------------------------------------------------------------


 First call to EWALD:  gamma=   0.179
 Maximum number of real-space cells 6x 6x 1
 Maximum number of reciprocal cells 1x 1x16

    FEWALD:  cpu time    0.0052: real time    0.0052


--------------------------------------- Iteration      1(   1)  ---------------------------------------


    POTLOK:  cpu time    0.0925: real time    0.1055
    SETDIJ:  cpu time    1.5049: real time    1.5051
     EDDAV:  cpu time    3.3686: real time    3.5108
       DOS:  cpu time    0.0021: real time    0.0022
    --------------------------------------------
      LOOP:  cpu time    4.9682: real time    5.1236

 eigenvalue-minimisations  :  1952
 total energy-change (2. order) : 0.1515300E+04  (-0.6002253E+04)
 number of electron     144.0000000 magnetization 
 augmentation part      144.0000000 magnetization 

 Free energy of the ion-electron system (eV)
  ---------------------------------------------------
  alpha Z        PSCENC =       224.13162693
  Ewald energy   TEWEN  =    327594.28358380
  -Hartree energ DENC   =   -336242.90299840
  -exchange      EXHF   =         0.00000000
  -V(xc)+E(xc)   XCENC  =       355.22164718
  PAW double counting   =      8037.75159075    -7822.93820215
  entropy T*S    EENTRO =        -0.00170255
  eigenvalues    EBANDS =      -603.75950970
  atomic energy  EATOM  =      9973.51372603
  Solvation  Ediel_sol  =         0.00000000
  ---------------------------------------------------
  free energy    TOTEN  =      1515.29976189 eV

  energy without entropy =     1515.30146443  energy(sigma->0) =     1515.30061316


--------------------------------------------------------------------------------------------------------




--------------------------------------- Iteration      1(   2)  ---------------------------------------


     EDDAV:  cpu time    3.7699: real time    4.2667
       DOS:  cpu time    0.0016: real time    0.0016
    --------------------------------------------
      LOOP:  cpu time    3.7715: real time    4.2683

 eigenvalue-minimisations  :  2432
 total energy-change (2. order) :-0.1432208E+04  (-0.1365880E+04)
 number of electron     144.0000000 magnetization 
 augmentation part      144.0000000 magnetization 

 Free energy of the ion-electron system (eV)
  ---------------------------------------------------
  alpha Z        PSCENC =       224.13162693
  Ewald energy   TEWEN  =    327594.28358380
  -Hartree energ DENC   =   -336242.90299840
  -exchange      EXHF   =         0.00000000
  -V(xc)+E(xc)   XCENC  =       355.22164718
  PAW double counting   =      8037.75159075    -7822.93820215
  entropy T*S    EENTRO =        -0.00125582
  eigenvalues    EBANDS =     -2035.96745780
  atomic energy  EATOM  =      9973.51372603
  Solvation  Ediel_sol  =         0.00000000
  ---------------------------------------------------
  free energy    TOTEN  =        83.09226052 eV

  energy without entropy =       83.09351633  energy(sigma->0) =       83.09288842


--------------------------------------------------------------------------------------------------------




--------------------------------------- Iteration      1(   3)  ---------------------------------------


     EDDAV:  cpu time    3.3995: real time    3.4303
       DOS:  cpu time    0.0009: real time    0.0012
    --------------------------------------------
      LOOP:  cpu time    3.4004: real time    3.4315

 eigenvalue-minimisations  :  2736
 total energy-change (2. order) :-0.3027932E+03  (-0.2994872E+03)
 number of electron     144.0000000 magnetization 
 augmentation part      144.0000000 magnetization 

 Free energy of the ion-electron system (eV)
  ---------------------------------------------------
  alpha Z        PSCENC =       224.13162693
  Ewald energy   TEWEN  =    327594.28358380
  -Hartree energ DENC   =   -336242.90299840
  -exchange      EXHF   =         0.00000000
  -V(xc)+E(xc)   XCENC  =       355.22164718
  PAW double counting   =      8037.75159075    -7822.93820215
  entropy T*S    EENTRO =        -0.00000000
  eigenvalues    EBANDS =     -2338.76195049
  atomic energy  EATOM  =      9973.51372603
  Solvation  Ediel_sol  =         0.00000000
  ---------------------------------------------------
  free energy    TOTEN  =      -219.70097636 eV

  energy without entropy =     -219.70097636  energy(sigma->0) =     -219.70097636


--------------------------------------------------------------------------------------------------------




--------------------------------------- Iteration      1(   4)  ---------------------------------------


     EDDAV:  cpu time    3.0491: real time    3.4045
       DOS:  cpu time    0.0009: real time    0.0009
    --------------------------------------------
      LOOP:  cpu time    3.0499: real time    3.4053

 eigenvalue-minimisations  :  2784
 total energy-change (2. order) :-0.1537138E+02  (-0.1530988E+02)
 number of electron     144.0000000 magnetization 
 augmentation part      144.0000000 magnetization 

 Free energy of the ion-electron system (eV)
  ---------------------------------------------------
  alpha Z        PSCENC =       224.13162693
  Ewald energy   TEWEN  =    327594.28358380
  -Hartree energ DENC   =   -336242.90299840
  -exchange      EXHF   =         0.00000000
  -V(xc)+E(xc)   XCENC  =       355.22164718
  PAW double counting   =      8037.75159075    -7822.93820215
  entropy T*S    EENTRO =        -0.00000000
  eigenvalues    EBANDS =     -2354.13333378
  atomic energy  EATOM  =      9973.51372603
  Solvation  Ediel_sol  =         0.00000000
  ---------------------------------------------------
  free energy    TOTEN  =      -235.07235965 eV

  energy without entropy =     -235.07235965  energy(sigma->0) =     -235.07235965


--------------------------------------------------------------------------------------------------------




--------------------------------------- Iteration      1(   5)  ---------------------------------------


     EDDAV:  cpu time    3.2817: real time    3.2848
       DOS:  cpu time    0.0008: real time    0.0008
    CHARGE:  cpu time    0.1436: real time    0.1436
    MIXING:  cpu time    0.0060: real time    0.0060
    --------------------------------------------
      LOOP:  cpu time    3.4322: real time    3.4352

 eigenvalue-minimisations  :  3536
 total energy-change (2. order) :-0.1168078E+01  (-0.1167563E+01)
 number of electron     143.9999905 magnetization 
 augmentation part       14.9028553 magnetization 

 Broyden mixing:
  rms(total) = 0.85806E+01    rms(broyden)= 0.85804E+01
  rms(prec ) = 0.85952E+01
  weight for this iteration     100.00

 Free energy of the ion-electron system (eV)
  ---------------------------------------------------
  alpha Z        PSCENC =       224.13162693
  Ewald energy   TEWEN  =    327594.28358380
  -Hartree energ DENC   =   -336242.90299840
  -exchange      EXHF   =         0.00000000
  -V(xc)+E(xc)   XCENC  =       355.22164718
  PAW double counting   =      8037.75159075    -7822.93820215
  entropy T*S    EENTRO =        -0.00000000
  eigenvalues    EBANDS =     -2355.30141218
  atomic energy  EATOM  =      9973.51372603
  Solvation  Ediel_sol  =         0.00000000
  ---------------------------------------------------
  free energy    TOTEN  =      -236.24043805 eV

  energy without entropy =     -236.24043805  energy(sigma->0) =     -236.24043805


--------------------------------------------------------------------------------------------------------




--------------------------------------- Iteration      1(   6)  ---------------------------------------


    POTLOK:  cpu time    0.0739: real time    0.0740
    SETDIJ:  cpu time    0.4029: real time    0.4030
     EDDAV:  cpu time    3.1975: real time    3.2002
       DOS:  cpu time    0.0010: real time    0.0014
    CHARGE:  cpu time    0.1777: real time    0.1779
    MIXING:  cpu time    0.0058: real time    0.0086
    --------------------------------------------
      LOOP:  cpu time    3.8589: real time    3.8651

 eigenvalue-minimisations  :  2880
 total energy-change (2. order) : 0.4167449E+02  (-0.2185734E+02)
 number of electron     143.9999931 magnetization 
 augmentation part       16.4695119 magnetization 

 Broyden mixing:
  rms(total) = 0.51975E+01    rms(broyden)= 0.51972E+01
  rms(prec ) = 0.52003E+01
  weight for this iteration     100.00

 eigenvalues of (default mixing * dielectric matrix)
  average eigenvalue GAMMA=   1.1044
  1.1044

 Free energy of the ion-electron system (eV)
  ---------------------------------------------------
  alpha Z        PSCENC =       224.13162693
  Ewald energy   TEWEN  =    327594.28358380
  -Hartree energ DENC   =   -336454.54488909
  -exchange      EXHF   =         0.00000000
  -V(xc)+E(xc)   XCENC  =       372.43425552
  PAW double counting   =     10937.82550596   -10733.59736265
  entropy T*S    EENTRO =        -0.00000000
  eigenvalues    EBANDS =     -2108.61239701
  atomic energy  EATOM  =      9973.51372603
  Solvation  Ediel_sol  =         0.00000000
  ---------------------------------------------------
  free energy    TOTEN  =      -194.56595051 eV

  energy without entropy =     -194.56595051  energy(sigma->0) =     -194.56595051


--------------------------------------------------------------------------------------------------------




--------------------------------------- Iteration      1(   7)  ---------------------------------------


    POTLOK:  cpu time    0.0688: real time    0.0722
    SETDIJ:  cpu time    0.4017: real time    0.4017
     EDDAV:  cpu time    3.2066: real time    3.4141
       DOS:  cpu time    0.0014: real time    0.0014
    CHARGE:  cpu time    0.2800: real time    0.2800
    MIXING:  cpu time    0.0055: real time    0.0055
    --------------------------------------------
      LOOP:  cpu time    3.9640: real time    4.1749

 eigenvalue-minimisations  :  2752
 total energy-change (2. order) :-0.1763476E+01  (-0.6137521E+01)
 number of electron     143.9999922 magnetization 
 augmentation part       14.6076410 magnetization 

 Broyden mixing:
  rms(total) = 0.38887E+01    rms(broyden)= 0.38886E+01
  rms(prec ) = 0.38912E+01
  weight for this iteration     100.00

 eigenvalues of (default mixing * dielectric matrix)
  average eigenvalue GAMMA=   1.9650
  0.7251  3.2049

 Free energy of the ion-electron system (eV)
  ---------------------------------------------------
  alpha Z        PSCENC =       224.13162693
  Ewald energy   TEWEN  =    327594.28358380
  -Hartree energ DENC   =   -336403.49412205
  -exchange      EXHF   =         0.00000000
  -V(xc)+E(xc)   XCENC  =       366.18689024
  PAW double counting   =     13114.69124385   -12916.11547222
  entropy T*S    EENTRO =        -0.00000000
  eigenvalues    EBANDS =     -2149.52690355
  atomic energy  EATOM  =      9973.51372603
  Solvation  Ediel_sol  =         0.00000000
  ---------------------------------------------------
  free energy    TOTEN  =      -196.32942697 eV

  energy without entropy =     -196.32942697  energy(sigma->0) =     -196.32942697


--------------------------------------------------------------------------------------------------------




--------------------------------------- Iteration      1(   8)  ---------------------------------------


    POTLOK:  cpu time    0.0920: real time    0.0921
    SETDIJ:  cpu time    0.4195: real time    0.4196
     EDDAV:  cpu time    3.7713: real time    4.5824
       DOS:  cpu time    0.0016: real time    0.0019
    CHARGE:  cpu time    0.1988: real time    0.1989
    MIXING:  cpu time    0.0063: real time    0.0063
    --------------------------------------------
      LOOP:  cpu time    4.4896: real time    5.3012

 eigenvalue-minimisations  :  2912
 total energy-change (2. order) : 0.1325058E+01  (-0.2178785E+01)
 number of electron     143.9999927 magnetization 
 augmentation part       16.5097454 magnetization 

 Broyden mixing:
  rms(total) = 0.18738E+01    rms(broyden)= 0.18738E+01
  rms(prec ) = 0.18793E+01
  weight for this iteration     100.00

 eigenvalues of (default mixing * dielectric matrix)
  average eigenvalue GAMMA=   1.3801
  2.4302  1.0942  0.6160

 Free energy of the ion-electron system (eV)
  ---------------------------------------------------
  alpha Z        PSCENC =       224.13162693
  Ewald energy   TEWEN  =    327594.28358380
  -Hartree energ DENC   =   -336451.28408946
  -exchange      EXHF   =         0.00000000
  -V(xc)+E(xc)   XCENC  =       369.29326718
  PAW double counting   =     18318.63537626   -18121.87937112
  entropy T*S    EENTRO =        -0.00138177
  eigenvalues    EBANDS =     -2101.69710648
  atomic energy  EATOM  =      9973.51372603
  Solvation  Ediel_sol  =         0.00000000
  ---------------------------------------------------
  free energy    TOTEN  =      -195.00436863 eV

  energy without entropy =     -195.00298686  energy(sigma->0) =     -195.00367775


--------------------------------------------------------------------------------------------------------




--------------------------------------- Iteration      1(   9)  ---------------------------------------


    POTLOK:  cpu time    0.0809: real time    0.0823
    SETDIJ:  cpu time    0.4042: real time    0.4044
     EDDAV:  cpu time    3.0402: real time    3.0420
       DOS:  cpu time    0.0016: real time    0.0016
    CHARGE:  cpu time    0.1774: real time    0.1774
    MIXING:  cpu time    0.0041: real time    0.0041
    --------------------------------------------
      LOOP:  cpu time    3.7085: real time    3.7117

 eigenvalue-minimisations  :  2752
 total energy-change (2. order) : 0.1376632E+01  (-0.9584654E+00)
 number of electron     143.9999923 magnetization 
 augmentation part       15.0581816 magnetization 

 Broyden mixing:
  rms(total) = 0.32541E+00    rms(broyden)= 0.32536E+00
  rms(prec ) = 0.32713E+00
  weight for this iteration     100.00

 eigenvalues of (default mixing * dielectric matrix)
  average eigenvalue GAMMA=   1.3735
  2.5266  1.3593  1.0176  0.5907

 Free energy of the ion-electron system (eV)
  ---------------------------------------------------
  alpha Z        PSCENC =       224.13162693
  Ewald energy   TEWEN  =    327594.28358380
  -Hartree energ DENC   =   -336451.69737528
  -exchange      EXHF   =         0.00000000
  -V(xc)+E(xc)   XCENC  =       367.89284657
  PAW double counting   =     16637.66683204   -16439.25361559
  entropy T*S    EENTRO =        -0.00000000
  eigenvalues    EBANDS =     -2100.16536146
  atomic energy  EATOM  =      9973.51372603
  Solvation  Ediel_sol  =         0.00000000
  ---------------------------------------------------
  free energy    TOTEN  =      -193.62773697 eV

  energy without entropy =     -193.62773697  energy(sigma->0) =     -193.62773697


--------------------------------------------------------------------------------------------------------




--------------------------------------- Iteration      1(  10)  ---------------------------------------


    POTLOK:  cpu time    0.0739: real time    0.0740
    SETDIJ:  cpu time    0.4115: real time    0.4117
     EDDAV:  cpu time    3.6857: real time    3.6882
       DOS:  cpu time    0.0011: real time    0.0011
    CHARGE:  cpu time    0.2335: real time    0.2335
    MIXING:  cpu time    0.0111: real time    0.0249
    --------------------------------------------
      LOOP:  cpu time    4.4168: real time    4.4335

 eigenvalue-minimisations  :  2912
 total energy-change (2. order) : 0.6131025E-01  (-0.9896174E-01)
 number of electron     143.9999925 magnetization 
 augmentation part       15.2622460 magnetization 

 Broyden mixing:
  rms(total) = 0.21168E+00    rms(broyden)= 0.21168E+00
  rms(prec ) = 0.21226E+00
  weight for this iteration     100.00

 eigenvalues of (default mixing * dielectric matrix)
  average eigenvalue GAMMA=   1.2487
  1.9653  1.9653  0.8655  0.8655  0.5819

 Free energy of the ion-electron system (eV)
  ---------------------------------------------------
  alpha Z        PSCENC =       224.13162693
  Ewald energy   TEWEN  =    327594.28358380
  -Hartree energ DENC   =   -336475.84044884
  -exchange      EXHF   =         0.00000000
  -V(xc)+E(xc)   XCENC  =       368.95075415
  PAW double counting   =     16704.06248148   -16503.32684440
  entropy T*S    EENTRO =        -0.00000000
  eigenvalues    EBANDS =     -2079.34130587
  atomic energy  EATOM  =      9973.51372603
  Solvation  Ediel_sol  =         0.00000000
  ---------------------------------------------------
  free energy    TOTEN  =      -193.56642672 eV

  energy without entropy =     -193.56642672  energy(sigma->0) =     -193.56642672


--------------------------------------------------------------------------------------------------------




--------------------------------------- Iteration      1(  11)  ---------------------------------------


    POTLOK:  cpu time    0.0967: real time    0.0968
    SETDIJ:  cpu time    0.4048: real time    0.4050
     EDDAV:  cpu time    2.8646: real time    2.8655
       DOS:  cpu time    0.0009: real time    0.0013
    CHARGE:  cpu time    0.1644: real time    0.1644
    MIXING:  cpu time    0.0067: real time    0.0067
    --------------------------------------------
      LOOP:  cpu time    3.5381: real time    3.5397

 eigenvalue-minimisations  :  3104
 total energy-change (2. order) : 0.1046871E-01  (-0.1623548E-01)
 number of electron     143.9999924 magnetization 
 augmentation part       15.1800731 magnetization 

 Broyden mixing:
  rms(total) = 0.69602E-01    rms(broyden)= 0.69596E-01
  rms(prec ) = 0.70224E-01
  weight for this iteration     100.00

 eigenvalues of (default mixing * dielectric matrix)
  average eigenvalue GAMMA=   1.2158
  2.2199  1.5459  1.0956  1.0956  0.5730  0.7648

 Free energy of the ion-electron system (eV)
  ---------------------------------------------------
  alpha Z        PSCENC =       224.13162693
  Ewald energy   TEWEN  =    327594.28358380
  -Hartree energ DENC   =   -336479.75873058
  -exchange      EXHF   =         0.00000000
  -V(xc)+E(xc)   XCENC  =       368.78818775
  PAW double counting   =     16512.08695961   -16310.63855955
  entropy T*S    EENTRO =        -0.00000000
  eigenvalues    EBANDS =     -2075.96275200
  atomic energy  EATOM  =      9973.51372603
  Solvation  Ediel_sol  =         0.00000000
  ---------------------------------------------------
  free energy    TOTEN  =      -193.55595801 eV

  energy without entropy =     -193.55595801  energy(sigma->0) =     -193.55595801


--------------------------------------------------------------------------------------------------------




--------------------------------------- Iteration      1(  12)  ---------------------------------------


    POTLOK:  cpu time    0.0765: real time    0.0768
    SETDIJ:  cpu time    0.4270: real time    0.4272
     EDDAV:  cpu time    3.0252: real time    3.0262
       DOS:  cpu time    0.0008: real time    0.0008
    CHARGE:  cpu time    0.2186: real time    0.2186
    MIXING:  cpu time    0.0251: real time    0.0251
    --------------------------------------------
      LOOP:  cpu time    3.7732: real time    3.7747

 eigenvalue-minimisations  :  2624
 total energy-change (2. order) : 0.2910857E-02  (-0.2838025E-02)
 number of electron     143.9999924 magnetization 
 augmentation part       15.2124007 magnetization 

 Broyden mixing:
  rms(total) = 0.29438E-01    rms(broyden)= 0.29434E-01
  rms(prec ) = 0.30274E-01
  weight for this iteration     100.00

 eigenvalues of (default mixing * dielectric matrix)
  average eigenvalue GAMMA=   1.2684
  2.1129  2.1129  1.6035  0.8920  0.8920  0.5716  0.6942

 Free energy of the ion-electron system (eV)
  ---------------------------------------------------
  alpha Z        PSCENC =       224.13162693
  Ewald energy   TEWEN  =    327594.28358380
  -Hartree energ DENC   =   -336487.49795818
  -exchange      EXHF   =         0.00000000
  -V(xc)+E(xc)   XCENC  =       368.80271679
  PAW double counting   =     16555.79214842   -16353.76389314
  entropy T*S    EENTRO =        -0.00000000
  eigenvalues    EBANDS =     -2068.81499780
  atomic energy  EATOM  =      9973.51372603
  Solvation  Ediel_sol  =         0.00000000
  ---------------------------------------------------
  free energy    TOTEN  =      -193.55304715 eV

  energy without entropy =     -193.55304715  energy(sigma->0) =     -193.55304715


--------------------------------------------------------------------------------------------------------




--------------------------------------- Iteration      1(  13)  ---------------------------------------


    POTLOK:  cpu time    0.2328: real time    0.2330
    SETDIJ:  cpu time    0.3451: real time    0.3451
     EDDAV:  cpu time    3.4127: real time    3.4145
       DOS:  cpu time    0.0012: real time    0.0015
    CHARGE:  cpu time    0.2474: real time    0.2474
    MIXING:  cpu time    0.0090: real time    0.0090
    --------------------------------------------
      LOOP:  cpu time    4.2481: real time    4.2505

 eigenvalue-minimisations  :  2896
 total energy-change (2. order) : 0.1342176E-02  (-0.7892792E-03)
 number of electron     143.9999924 magnetization 
 augmentation part       15.2447345 magnetization 

 Broyden mixing:
  rms(total) = 0.26600E-01    rms(broyden)= 0.26599E-01
  rms(prec ) = 0.27228E-01
  weight for this iteration     100.00

 eigenvalues of (default mixing * dielectric matrix)
  average eigenvalue GAMMA=   1.2248
  2.2966  2.2966  1.3865  0.8933  0.8933  0.5881  0.7218  0.7218

 Free energy of the ion-electron system (eV)
  ---------------------------------------------------
  alpha Z        PSCENC =       224.13162693
  Ewald energy   TEWEN  =    327594.28358380
  -Hartree energ DENC   =   -336499.77382303
  -exchange      EXHF   =         0.00000000
  -V(xc)+E(xc)   XCENC  =       368.93370598
  PAW double counting   =     16566.62331149   -16363.94024227
  entropy T*S    EENTRO =        -0.00000000
  eigenvalues    EBANDS =     -2057.32359392
  atomic energy  EATOM  =      9973.51372603
  Solvation  Ediel_sol  =         0.00000000
  ---------------------------------------------------
  free energy    TOTEN  =      -193.55170498 eV

  energy without entropy =     -193.55170498  energy(sigma->0) =     -193.55170498


--------------------------------------------------------------------------------------------------------




--------------------------------------- Iteration      1(  14)  ---------------------------------------


    POTLOK:  cpu time    0.0988: real time    0.1012
    SETDIJ:  cpu time    0.4216: real time    0.4217
     EDDAV:  cpu time    4.6149: real time    4.6161
       DOS:  cpu time    0.0031: real time    0.0031
    CHARGE:  cpu time    0.2892: real time    0.2892
    MIXING:  cpu time    0.0059: real time    0.0059
    --------------------------------------------
      LOOP:  cpu time    5.4334: real time    5.4372

 eigenvalue-minimisations  :  2992
 total energy-change (2. order) : 0.8339689E-03  (-0.2150911E-03)
 number of electron     143.9999924 magnetization 
 augmentation part       15.2377218 magnetization 

 Broyden mixing:
  rms(total) = 0.11973E-01    rms(broyden)= 0.11973E-01
  rms(prec ) = 0.12886E-01
  weight for this iteration     100.00

 eigenvalues of (default mixing * dielectric matrix)
  average eigenvalue GAMMA=   1.2404
  2.3745  1.9503  1.9503  0.9750  0.9750  0.9757  0.7639  0.5828  0.6161

 Free energy of the ion-electron system (eV)
  ---------------------------------------------------
  alpha Z        PSCENC =       224.13162693
  Ewald energy   TEWEN  =    327594.28358380
  -Hartree energ DENC   =   -336504.70468386
  -exchange      EXHF   =         0.00000000
  -V(xc)+E(xc)   XCENC  =       368.92930124
  PAW double counting   =     16565.03007302   -16362.24018490
  entropy T*S    EENTRO =        -0.00000000
  eigenvalues    EBANDS =     -2052.49431327
  atomic energy  EATOM  =      9973.51372603
  Solvation  Ediel_sol  =         0.00000000
  ---------------------------------------------------
  free energy    TOTEN  =      -193.55087101 eV

  energy without entropy =     -193.55087101  energy(sigma->0) =     -193.55087101


--------------------------------------------------------------------------------------------------------




--------------------------------------- Iteration      1(  15)  ---------------------------------------


    POTLOK:  cpu time    0.0767: real time    0.0769
    SETDIJ:  cpu time    0.4462: real time    0.4465
     EDDAV:  cpu time    4.1807: real time    4.1816
       DOS:  cpu time    0.0010: real time    0.0013
    CHARGE:  cpu time    0.2534: real time    0.2536
    MIXING:  cpu time    0.0077: real time    0.0077
    --------------------------------------------
      LOOP:  cpu time    4.9658: real time    4.9675

 eigenvalue-minimisations  :  2832
 total energy-change (2. order) : 0.4851225E-03  (-0.9350223E-04)
 number of electron     143.9999924 magnetization 
 augmentation part       15.2303146 magnetization 

 Broyden mixing:
  rms(total) = 0.84486E-02    rms(broyden)= 0.84481E-02
  rms(prec ) = 0.93612E-02
  weight for this iteration     100.00

 eigenvalues of (default mixing * dielectric matrix)
  average eigenvalue GAMMA=   1.2497
  2.3409  2.1569  2.1569  1.1104  1.1104  0.8405  0.8405  0.7485  0.5792  0.6130

 Free energy of the ion-electron system (eV)
  ---------------------------------------------------
  alpha Z        PSCENC =       224.13162693
  Ewald energy   TEWEN  =    327594.28358380
  -Hartree energ DENC   =   -336510.10689525
  -exchange      EXHF   =         0.00000000
  -V(xc)+E(xc)   XCENC  =       368.91055078
  PAW double counting   =     16575.94080858   -16373.21049946
  entropy T*S    EENTRO =        -0.00000000
  eigenvalues    EBANDS =     -2047.01328729
  atomic energy  EATOM  =      9973.51372603
  Solvation  Ediel_sol  =         0.00000000
  ---------------------------------------------------
  free energy    TOTEN  =      -193.55038589 eV

  energy without entropy =     -193.55038589  energy(sigma->0) =     -193.55038589


--------------------------------------------------------------------------------------------------------




--------------------------------------- Iteration      1(  16)  ---------------------------------------


    POTLOK:  cpu time    0.0720: real time    0.0744
    SETDIJ:  cpu time    0.4138: real time    0.4138
     EDDAV:  cpu time    4.0531: real time    4.1377
       DOS:  cpu time    0.0008: real time    0.0008
    CHARGE:  cpu time    0.2312: real time    0.2312
    MIXING:  cpu time    0.0183: real time    0.0183
    --------------------------------------------
      LOOP:  cpu time    4.7892: real time    4.8762

 eigenvalue-minimisations  :  2688
 total energy-change (2. order) : 0.3609509E-03  (-0.4201289E-04)
 number of electron     143.9999924 magnetization 
 augmentation part       15.2336481 magnetization 

 Broyden mixing:
  rms(total) = 0.49164E-02    rms(broyden)= 0.49162E-02
  rms(prec ) = 0.60350E-02
  weight for this iteration     100.00

 eigenvalues of (default mixing * dielectric matrix)
  average eigenvalue GAMMA=   1.3756
  3.1121  2.3853  1.8865  1.8865  1.1043  1.1043  0.8294  0.8294  0.8131  0.5758
  0.6042

 Free energy of the ion-electron system (eV)
  ---------------------------------------------------
  alpha Z        PSCENC =       224.13162693
  Ewald energy   TEWEN  =    327594.28358380
  -Hartree energ DENC   =   -336515.62275222
  -exchange      EXHF   =         0.00000000
  -V(xc)+E(xc)   XCENC  =       368.93266488
  PAW double counting   =     16574.64387895   -16371.91053885
  entropy T*S    EENTRO =        -0.00000000
  eigenvalues    EBANDS =     -2041.52221446
  atomic energy  EATOM  =      9973.51372603
  Solvation  Ediel_sol  =         0.00000000
  ---------------------------------------------------
  free energy    TOTEN  =      -193.55002494 eV

  energy without entropy =     -193.55002494  energy(sigma->0) =     -193.55002494


--------------------------------------------------------------------------------------------------------




--------------------------------------- Iteration      1(  17)  ---------------------------------------


    POTLOK:  cpu time    0.0853: real time    0.0856
    SETDIJ:  cpu time    0.4210: real time    0.4212
     EDDAV:  cpu time    2.9924: real time    2.9934
       DOS:  cpu time    0.0237: real time    0.0394
    CHARGE:  cpu time    0.2923: real time    0.3029
    MIXING:  cpu time    0.0137: real time    0.0164
    --------------------------------------------
      LOOP:  cpu time    3.8285: real time    3.8587

 eigenvalue-minimisations  :  2432
 total energy-change (2. order) : 0.5369073E-03  (-0.5873820E-04)
 number of electron     143.9999924 magnetization 
 augmentation part       15.2333192 magnetization 

 Broyden mixing:
  rms(total) = 0.35450E-02    rms(broyden)= 0.35449E-02
  rms(prec ) = 0.43960E-02
  weight for this iteration     100.00

 eigenvalues of (default mixing * dielectric matrix)
  average eigenvalue GAMMA=   1.3480
  2.6829  2.2970  2.1615  2.1615  1.1888  1.1888  0.9001  0.9001  0.7582  0.7582
  0.5756  0.6033

 Free energy of the ion-electron system (eV)
  ---------------------------------------------------
  alpha Z        PSCENC =       224.13162693
  Ewald energy   TEWEN  =    327594.28358380
  -Hartree energ DENC   =   -336525.97654992
  -exchange      EXHF   =         0.00000000
  -V(xc)+E(xc)   XCENC  =       368.95063549
  PAW double counting   =     16571.65820561   -16368.88323594
  entropy T*S    EENTRO =        -0.00000000
  eigenvalues    EBANDS =     -2031.22748003
  atomic energy  EATOM  =      9973.51372603
  Solvation  Ediel_sol  =         0.00000000
  ---------------------------------------------------
  free energy    TOTEN  =      -193.54948803 eV

  energy without entropy =     -193.54948803  energy(sigma->0) =     -193.54948803


--------------------------------------------------------------------------------------------------------




--------------------------------------- Iteration      1(  18)  ---------------------------------------


    POTLOK:  cpu time    0.0671: real time    0.0989
    SETDIJ:  cpu time    0.2551: real time    0.4140
     EDDAV:  cpu time    2.9589: real time    2.9612
       DOS:  cpu time    0.0010: real time    0.0012
    CHARGE:  cpu time    0.3634: real time    0.3705
    MIXING:  cpu time    0.0150: real time    0.0153
    --------------------------------------------
      LOOP:  cpu time    3.6605: real time    3.8610

 eigenvalue-minimisations  :  2848
 total energy-change (2. order) : 0.1249250E-04  (-0.2591142E-04)
 number of electron     143.9999924 magnetization 
 augmentation part       15.2297616 magnetization 

 Broyden mixing:
  rms(total) = 0.45619E-02    rms(broyden)= 0.45618E-02
  rms(prec ) = 0.50515E-02
  weight for this iteration     100.00

 eigenvalues of (default mixing * dielectric matrix)
  average eigenvalue GAMMA=   1.4123
  3.5432  2.7423  2.1959  1.6604  1.3598  1.3598  0.9816  0.9816  0.7847  0.7847
  0.7880  0.5784  0.5997

 Free energy of the ion-electron system (eV)
  ---------------------------------------------------
  alpha Z        PSCENC =       224.13162693
  Ewald energy   TEWEN  =    327594.28358380
  -Hartree energ DENC   =   -336530.72392103
  -exchange      EXHF   =         0.00000000
  -V(xc)+E(xc)   XCENC  =       368.94343910
  PAW double counting   =     16571.90406654   -16369.19659713
  entropy T*S    EENTRO =        -0.00000000
  eigenvalues    EBANDS =     -2026.40539978
  atomic energy  EATOM  =      9973.51372603
  Solvation  Ediel_sol  =         0.00000000
  ---------------------------------------------------
  free energy    TOTEN  =      -193.54947554 eV

  energy without entropy =     -193.54947554  energy(sigma->0) =     -193.54947554


--------------------------------------------------------------------------------------------------------




--------------------------------------- Iteration      1(  19)  ---------------------------------------


    POTLOK:  cpu time    0.1063: real time    0.1090
    SETDIJ:  cpu time    0.4381: real time    0.4386
     EDDAV:  cpu time    3.3293: real time    3.6372
       DOS:  cpu time    0.0010: real time    0.0010
    CHARGE:  cpu time    0.2086: real time    0.2088
    MIXING:  cpu time    0.0027: real time    0.0027
    --------------------------------------------
      LOOP:  cpu time    4.0859: real time    4.3973

 eigenvalue-minimisations  :  2448
 total energy-change (2. order) :-0.5790709E-04  (-0.2912181E-04)
 number of electron     143.9999924 magnetization 
 augmentation part       15.2308684 magnetization 

 Broyden mixing:
  rms(total) = 0.28128E-02    rms(broyden)= 0.28127E-02
  rms(prec ) = 0.32040E-02
  weight for this iteration     100.00

 eigenvalues of (default mixing * dielectric matrix)
  average eigenvalue GAMMA=   1.5415
  5.1817  2.8115  2.2592  1.8287  1.8287  1.0345  1.0345  1.0760  0.8109  0.8109
  0.8629  0.8629  0.5770  0.6010

 Free energy of the ion-electron system (eV)
  ---------------------------------------------------
  alpha Z        PSCENC =       224.13162693
  Ewald energy   TEWEN  =    327594.28358380
  -Hartree energ DENC   =   -336538.69643854
  -exchange      EXHF   =         0.00000000
  -V(xc)+E(xc)   XCENC  =       368.95524040
  PAW double counting   =     16570.15423007   -16367.46499241
  entropy T*S    EENTRO =        -0.00000000
  eigenvalues    EBANDS =     -2018.42650972
  atomic energy  EATOM  =      9973.51372603
  Solvation  Ediel_sol  =         0.00000000
  ---------------------------------------------------
  free energy    TOTEN  =      -193.54953344 eV

  energy without entropy =     -193.54953344  energy(sigma->0) =     -193.54953344


--------------------------------------------------------------------------------------------------------




--------------------------------------- Iteration      1(  20)  ---------------------------------------


    POTLOK:  cpu time    0.0605: real time    0.0606
    SETDIJ:  cpu time    0.4072: real time    0.4072
     EDDAV:  cpu time    3.3206: real time    3.3219
       DOS:  cpu time    0.0013: real time    0.0018
    CHARGE:  cpu time    0.2680: real time    0.2680
    MIXING:  cpu time    0.0099: real time    0.0099
    --------------------------------------------
      LOOP:  cpu time    4.0676: real time    4.0694

 eigenvalue-minimisations  :  2272
 total energy-change (2. order) :-0.1699917E-03  (-0.1687455E-04)
 number of electron     143.9999924 magnetization 
 augmentation part       15.2320512 magnetization 

 Broyden mixing:
  rms(total) = 0.16831E-02    rms(broyden)= 0.16831E-02
  rms(prec ) = 0.19851E-02
  weight for this iteration     100.00

 eigenvalues of (default mixing * dielectric matrix)
  average eigenvalue GAMMA=   1.6894
  7.0321  2.7992  2.4480  2.4480  1.7444  1.1596  1.1596  1.0457  1.0457  0.8073
  0.8073  0.8672  0.7992  0.5772  0.6006

 Free energy of the ion-electron system (eV)
  ---------------------------------------------------
  alpha Z        PSCENC =       224.13162693
  Ewald energy   TEWEN  =    327594.28358380
  -Hartree energ DENC   =   -336545.26861793
  -exchange      EXHF   =         0.00000000
  -V(xc)+E(xc)   XCENC  =       368.96373457
  PAW double counting   =     16569.56404072   -16366.86515916
  entropy T*S    EENTRO =        -0.00000000
  eigenvalues    EBANDS =     -2011.87263840
  atomic energy  EATOM  =      9973.51372603
  Solvation  Ediel_sol  =         0.00000000
  ---------------------------------------------------
  free energy    TOTEN  =      -193.54970343 eV

  energy without entropy =     -193.54970343  energy(sigma->0) =     -193.54970343


--------------------------------------------------------------------------------------------------------




--------------------------------------- Iteration      1(  21)  ---------------------------------------


    POTLOK:  cpu time    0.0851: real time    0.0857
    SETDIJ:  cpu time    0.4233: real time    0.4235
     EDDAV:  cpu time    2.7714: real time    2.7723
       DOS:  cpu time    0.0018: real time    0.0018
    CHARGE:  cpu time    0.3640: real time    0.3640
    MIXING:  cpu time    0.0158: real time    0.0158
    --------------------------------------------
      LOOP:  cpu time    3.6615: real time    3.6631

 eigenvalue-minimisations  :  2192
 total energy-change (2. order) :-0.1702512E-03  (-0.1310710E-04)
 number of electron     143.9999924 magnetization 
 augmentation part       15.2332076 magnetization 

 Broyden mixing:
  rms(total) = 0.16057E-02    rms(broyden)= 0.16056E-02
  rms(prec ) = 0.17462E-02
[...]
     26     -20.3207      2.00000
     27     -14.0807      2.00000
     28     -14.0807      2.00000
     29     -13.9409      2.00000
     30     -13.9409      2.00000
     31      -8.8585      2.00000
     32      -8.8585      2.00000
     33      -8.8341      2.00000
     34      -8.8341      2.00000
     35      -8.7943      2.00000
     36      -8.7943      2.00000
     37      -8.6760      2.00000
     38      -8.6760      2.00000
     39      -8.0619      2.00000
     40      -8.0619      2.00000
     41      -8.0154      2.00000
     42      -8.0154      2.00000
     43      -7.9656      2.00000
     44      -7.9656      2.00000
     45      -7.5064      2.00000
     46      -7.5064      2.00000
     47      -7.5053      2.00000
     48      -7.5053      2.00000
     49      -6.6042      2.00000
     50      -6.6042      2.00000
     51      -6.5572      2.00000
     52      -6.5572      2.00000
     53      -6.2594      2.00000
     54      -6.2594      2.00000
     55      -5.4765      2.00000
     56      -5.4765      2.00000
     57      -5.4378      2.00000
     58      -5.4378      2.00000
     59      -5.1105      2.00000
     60      -5.1105      2.00000
     61      -5.1032      2.00000
     62      -5.1032      2.00000
     63      -4.8879      2.00000
     64      -4.8879      2.00000
     65      -4.5804      2.00000
     66      -4.5804      2.00000
     67      -4.4918      2.00000
     68      -4.4918      2.00000
     69      -4.2224      2.00000
     70      -4.2224      2.00000
     71      -4.0001      2.00000
     72      -4.0001      2.00000
     73      -1.3000      0.00000
     74      -1.3000      0.00000
     75      -1.2998      0.00000
     76      -1.2998      0.00000
     77      -0.3886      0.00000
     78      -0.3886      0.00000
     79      -0.3368      0.00000
     80      -0.3368      0.00000
     81      -0.2442      0.00000
     82      -0.2442      0.00000
     83      -0.2433      0.00000
     84      -0.2433      0.00000
     85      -0.1497      0.00000
     86      -0.1497      0.00000
     87       1.0179      0.00000
     88       1.0179      0.00000
     89       1.8162      0.00000
     90       1.8162      0.00000
     91       2.7643      0.00000
     92       2.7643      0.00000
     93       2.9583      0.00000
     94       2.9596      0.00000
     95       3.0317      0.00000
     96       3.0324      0.00000


--------------------------------------------------------------------------------------------------------


 soft charge-density along one line, spin component           1
         0         1         2         3         4         5         6         7         8         9
 total charge-density along one line
 
 pseudopotential strength for first ion, spin component:           1
-25.188  -6.456   0.000  -0.009   0.000   0.000  -0.009   0.000
 -6.456  -0.105   0.000  -0.023   0.000   0.000  -0.022   0.000
  0.000   0.000 -21.944   0.000  -0.000 -20.877   0.000  -0.000
 -0.009  -0.023   0.000 -21.987  -0.000   0.000 -20.918  -0.000
  0.000   0.000  -0.000  -0.000 -21.944  -0.000  -0.000 -20.877
  0.000   0.000 -20.877   0.000  -0.000 -19.869   0.000  -0.000
 -0.009  -0.022   0.000 -20.918  -0.000   0.000 -19.907  -0.000
  0.000   0.000  -0.000  -0.000 -20.877  -0.000  -0.000 -19.869
 -0.000   0.000   0.000   0.000   0.000   0.000   0.000   0.000
  0.000   0.000  -0.007   0.000   0.000  -0.006   0.000   0.000
 -0.015  -0.011  -0.000  -0.007  -0.000  -0.000  -0.007  -0.000
 -0.000   0.000   0.000   0.000  -0.007   0.000   0.000  -0.006
 -0.000  -0.000  -0.000  -0.000   0.000  -0.000  -0.000   0.000
 -0.000   0.000   0.000   0.000   0.000   0.000   0.000   0.000
  0.000   0.000  -0.009   0.000   0.000  -0.009   0.000   0.000
 -0.020  -0.014  -0.000  -0.010  -0.000  -0.000  -0.009  -0.000
 -0.000   0.000   0.000   0.000  -0.009   0.000   0.000  -0.009
 -0.000  -0.000  -0.000  -0.000   0.000  -0.000  -0.000   0.000
  0.000   0.000   0.000  -0.000  -0.000   0.000  -0.000  -0.000
  0.000   0.000  -0.000   0.000   0.000  -0.000   0.000   0.000
  0.000   0.000  -0.003   0.000  -0.000  -0.003   0.000  -0.000
  0.000  -0.000  -0.000  -0.005  -0.000  -0.000  -0.005  -0.000
  0.000   0.000  -0.000  -0.000  -0.003  -0.000  -0.000  -0.003
 -0.000  -0.000  -0.000  -0.000   0.000  -0.000  -0.000   0.000
 -0.000  -0.000  -0.000   0.000  -0.000  -0.000   0.000  -0.000
 total augmentation occupancy for first ion, spin component:           1
  1.995  -0.049   0.000  -0.053   0.000   0.000   0.056  -0.000   0.000   0.000  -0.037  -0.000   0.000   0.000   0.000   0.033
 -0.049   0.800   0.000   0.400   0.000   0.000  -0.382   0.000   0.000   0.000  -0.422   0.000   0.000   0.000   0.000   0.250
  0.000   0.000  20.309   0.000   0.000 -18.016   0.000   0.000   0.000   1.511   0.000   0.000  -0.000   0.000  -1.083   0.000
 -0.053   0.400   0.000  14.895   0.000   0.000 -12.591   0.000   0.000  -0.000   2.365  -0.000   0.000   0.000   0.000  -1.384
  0.000  -0.000   0.000   0.000  20.309   0.000   0.000 -18.016  -0.000   0.000   0.000   1.511  -0.000   0.000   0.000  -0.000
  0.000   0.000 -18.016   0.000   0.000  17.695   0.000   0.000   0.000  -1.537   0.000   0.000   0.000   0.000   1.111   0.000
  0.056  -0.382   0.000 -12.591   0.000   0.000  12.263   0.000   0.000   0.000  -2.416   0.000   0.000   0.000   0.000   1.431
 -0.000   0.000   0.000   0.000 -18.016   0.000   0.000  17.695  -0.000   0.000   0.000  -1.537   0.000  -0.000   0.000   0.000
  0.000   0.000  -0.000   0.000  -0.000  -0.000   0.000  -0.000   6.081   0.000   0.000   0.000   0.000  -3.589   0.000   0.000
  0.000   0.000   1.511   0.000   0.000  -1.537   0.000   0.000  -0.000   5.960   0.000   0.000   0.000   0.000  -3.623   0.000
 -0.037  -0.422   0.000   2.365   0.000   0.000  -2.416  -0.000   0.000   0.000   2.401   0.000   0.000   0.000  -0.000  -1.431
 -0.000   0.000   0.000  -0.000   1.511   0.000   0.000  -1.537   0.000   0.000   0.000   5.960   0.000   0.000   0.000   0.000
  0.000   0.000   0.000   0.000  -0.000   0.000   0.000   0.000   0.000   0.000   0.000   0.000   5.066  -0.000   0.000   0.000
  0.000   0.000   0.000   0.000   0.000   0.000   0.000   0.000  -3.589   0.000   0.000   0.000  -0.000   2.133   0.000   0.000
  0.000   0.000  -1.083   0.000   0.000   1.111   0.000   0.000   0.000  -3.623  -0.000   0.000   0.000  -0.000   2.215   0.000
  0.033   0.250   0.000  -1.384   0.000   0.000   1.431  -0.000   0.000   0.000  -1.431  -0.000   0.000   0.000   0.000   0.858
 -0.000   0.000   0.000   0.000  -1.083   0.000   0.000   1.111   0.000   0.000   0.000  -3.623   0.000   0.000   0.000   0.000
  0.000   0.000  -0.000   0.000  -0.000   0.000   0.000  -0.000  -0.000   0.000   0.000   0.000  -3.083   0.000   0.000   0.000
  0.000  -0.000  -0.112   0.000   0.000   0.114   0.000  -0.000   0.000   0.175   0.000   0.000   0.000  -0.000  -0.102   0.000
  0.000   0.000   0.000   0.000   0.000   0.000   0.000   0.000   0.140  -0.000   0.000  -0.000  -0.000  -0.074   0.000   0.000
 -0.000  -0.000  -0.009   0.000   0.000   0.015   0.000  -0.000   0.000  -0.191   0.000   0.000   0.000   0.000   0.116   0.000
  0.000  -0.010   0.000   0.403   0.000   0.000  -0.393   0.000   0.000   0.000   0.035   0.000   0.000   0.000   0.000  -0.017
  0.000   0.000   0.000  -0.000  -0.009   0.000   0.000   0.015   0.000   0.000  -0.000  -0.191  -0.000   0.000   0.000  -0.000
  0.000   0.000   0.000   0.000   0.000   0.000   0.000   0.000   0.000   0.000   0.000  -0.000  -0.309  -0.000   0.000   0.000
  0.000   0.000   0.000   0.000   0.112  -0.000   0.000  -0.114   0.000   0.000   0.000  -0.175   0.000   0.000   0.000  -0.000


------------------------ aborting loop because EDIFF is reached ----------------------------------------


 


 total charge     
 
# of ion       s       p       d       f       tot
--------------------------------------------------
    1        2.159   6.376   0.919   0.100   9.554
    2        2.159   6.376   0.919   0.100   9.554
    3        2.160   6.402   0.964   0.105   9.631
    4        2.160   6.402   0.964   0.105   9.631
    5        0.578   1.041   2.739   0.000   4.358
    6        0.578   1.041   2.739   0.000   4.358
    7        0.578   1.035   2.742   0.000   4.354
    8        0.578   1.035   2.742   0.000   4.354
    9        1.317   2.439   0.000   0.000   3.756
   10        1.317   2.439   0.000   0.000   3.756
   11        1.318   2.461   0.000   0.000   3.779
   12        1.318   2.461   0.000   0.000   3.779
   13        1.576   3.429   0.000   0.000   5.005
   14        1.575   3.410   0.000   0.000   4.984
   15        1.552   3.537   0.000   0.000   5.088
   16        1.552   3.537   0.000   0.000   5.088
   17        1.575   3.410   0.000   0.000   4.984
   18        1.576   3.429   0.000   0.000   5.005
   19        1.575   3.410   0.000   0.000   4.985
   20        1.552   3.536   0.000   0.000   5.087
   21        1.552   3.536   0.000   0.000   5.087
   22        1.575   3.410   0.000   0.000   4.985
--------------------------------------------------
tot         31.877  74.151  14.727   0.410 121.165

 
    CHARGE:  cpu time    0.2413: real time    0.2413
    FORLOC:  cpu time    0.0051: real time    0.0051
    FORNL :  cpu time    0.2632: real time    0.2632
    STRESS:  cpu time    0.8647: real time    0.8649
    FORCOR:  cpu time    0.0726: real time    0.0726
    FORHAR:  cpu time    0.0247: real time    0.0247
    MIXING:  cpu time    0.0393: real time    0.0392
    OFIELD:  cpu time    0.0001: real time    0.0001

  FORCE on cell =-STRESS in cart. coord.  units (eV):
  Direction    XX          YY          ZZ          XY          YZ          ZX
  --------------------------------------------------------------------------------------
  Alpha Z   224.13163   224.13163   224.13163
  Ewald  333239.17245333239.17245************    -0.00000     0.00000     0.00000
  Hartree335216.97025335216.97025************    -0.00000    -0.00000    -0.00000
  E(xc)    -619.29189  -619.29189  -620.36753     0.00000    -0.00000    -0.00000
  Local  ************************670957.74650     0.00000     0.00000     0.00000
  n-local  -157.66958  -162.13547  -160.78067    -5.54940     0.00000    -0.00000
  augment    76.92238    76.92238    76.88915     0.00000     0.00000     0.00000
  Kinetic  2249.90048  2304.92562  2282.03543    -1.12327    -0.00000     0.00000
  Fock        0.00000     0.00000     0.00000     0.00000     0.00000     0.00000
  -------------------------------------------------------------------------------------
  Total      -3.25982    -3.25982     0.21286     0.00000     0.00000     0.00000
  in kB      -5.39513    -5.39513     0.35230     0.00000     0.00000     0.00000
  external pressure =       -3.48 kB  Pullay stress =        0.00 kB


 VOLUME and BASIS-vectors are now :
 -----------------------------------------------------------------------------
  energy-cutoff  :      520.00
  volume of cell :      968.06
      direct lattice vectors                 reciprocal lattice vectors
     3.770023000  0.000000000  0.000000000     0.265250371  0.000000000  0.000000000
     0.000000000  3.770023000  0.000000000     0.000000000  0.265250371  0.000000000
     0.000000000  0.000000000 68.110540000     0.000000000  0.000000000  0.014682015

  length of vectors
     3.770023000  3.770023000 68.110540000     0.265250371  0.265250371  0.014682015


 FORCES acting on ions
    electron-ion (+dipol)            ewald-force                    non-local-force                 convergence-correction
 -----------------------------------------------------------------------------------------------
   0.106E-12 0.517E-12 -.575E+04   0.725E-14 0.173E-13 0.575E+04   0.000E+00 0.323E-26 0.253E+01   0.128E-13 -.326E-13 0.114E-03
   0.491E-15 -.381E-12 0.575E+04   0.725E-14 0.173E-13 -.575E+04   0.000E+00 0.000E+00 -.253E+01   -.133E-13 0.392E-13 -.114E-03
   0.634E-14 0.402E-12 0.982E+03   -.261E-13 -.812E-14 -.983E+03   0.000E+00 -.162E-26 0.428E+00   -.167E-13 0.128E-13 -.763E-04
   0.902E-13 -.129E-13 -.982E+03   -.208E-13 -.924E-14 0.983E+03   0.646E-26 0.000E+00 -.428E+00   0.155E-13 -.462E-14 0.763E-04
   0.152E-14 0.476E-12 0.152E+04   -.141E-13 0.719E-14 -.152E+04   -.162E-26 0.000E+00 0.441E-01   -.228E-14 -.736E-14 -.638E-04
   -.259E-14 -.222E-12 -.152E+04   -.141E-13 0.719E-14 0.152E+04   0.000E+00 0.000E+00 -.441E-01   0.444E-14 0.652E-14 0.638E-04
   0.624E-16 0.272E-12 -.926E+03   -.557E-14 0.372E-16 0.926E+03   0.000E+00 0.517E-25 0.250E-01   -.106E-14 -.104E-14 0.513E-04
   0.247E-14 -.180E-12 0.926E+03   -.553E-14 0.102E-15 -.926E+03   0.000E+00 0.646E-26 -.250E-01   0.292E-15 0.368E-14 -.513E-04
   -.116E-14 0.921E-12 0.341E+04   0.979E-15 0.411E-15 -.341E+04   0.827E-24 0.000E+00 0.465E+00   0.102E-13 -.450E-14 -.112E-03
   -.232E-14 -.747E-12 -.341E+04   0.979E-15 0.411E-15 0.341E+04   -.827E-24 0.000E+00 -.465E+00   -.997E-14 0.685E-15 0.112E-03
   0.812E-14 -.182E-12 -.249E+03   0.275E-13 0.454E-14 0.248E+03   0.310E-24 0.207E-24 0.443E+00   0.593E-14 0.106E-13 -.197E-04
   -.255E-13 0.245E-12 0.249E+03   0.181E-13 0.895E-14 -.248E+03   -.414E-24 0.000E+00 -.443E+00   -.561E-14 -.120E-13 0.197E-04
   0.253E-14 -.867E-12 -.183E+04   0.200E-14 -.573E-14 0.183E+04   0.103E-24 0.000E+00 -.156E+00   0.747E-14 -.177E-13 0.818E-04
   -.892E-14 0.656E-12 0.241E+04   0.330E-14 -.133E-13 -.241E+04   0.207E-24 0.000E+00 -.159E+01   0.140E-13 0.247E-13 -.723E-04
   0.105E-14 -.339E-12 -.241E+04   -.981E-14 -.109E-13 0.241E+04   0.000E+00 0.000E+00 0.159E+01   -.377E-14 -.434E-13 0.723E-04
   0.141E-12 0.290E-12 0.241E+04   -.925E-14 -.118E-13 -.241E+04   0.000E+00 0.000E+00 -.159E+01   0.205E-14 0.372E-13 -.723E-04
   0.139E-12 -.539E-12 -.241E+04   0.282E-14 -.103E-13 0.241E+04   -.207E-24 0.000E+00 0.159E+01   -.969E-14 -.168E-13 0.723E-04
   0.177E-12 0.950E-12 0.183E+04   0.959E-15 -.182E-14 -.183E+04   -.103E-24 0.000E+00 0.156E+00   -.590E-14 0.131E-13 -.818E-04
   0.136E-12 -.669E-12 -.126E+04   -.668E-14 0.962E-14 0.126E+04   0.258E-25 0.000E+00 -.149E+01   0.193E-13 0.194E-13 0.548E-04
   0.146E-12 -.377E-12 0.126E+04   -.203E-14 0.766E-15 -.126E+04   0.000E+00 0.517E-25 0.149E+01   0.326E-14 -.208E-13 -.548E-04
   -.851E-14 0.818E-12 -.126E+04   -.770E-14 0.355E-14 0.126E+04   0.000E+00 0.000E+00 -.149E+01   -.154E-13 0.177E-13 0.548E-04
   -.682E-14 0.101E-11 0.126E+04   -.118E-13 0.127E-13 -.126E+04   -.517E-25 -.258E-25 0.149E+01   -.168E-13 -.121E-13 -.548E-04
 -----------------------------------------------------------------------------------------------
   0.903E-12 0.204E-11 0.752E-10   -.622E-13 0.189E-13 0.136E-11   -.124E-24 0.292E-24 0.000E+00   -.528E-14 0.128E-13 0.128E-10
 
 
 POSITION                                       TOTAL-FORCE (eV/Angst)
 -----------------------------------------------------------------------------------
      1.88501      1.88501     43.52788         0.000000      0.000000     -0.560177
      0.00000      0.00000     24.58266         0.000000     -0.000000      0.560177
      0.00000      0.00000     32.17610         0.000000     -0.000000      0.004056
      1.88501      1.88501     35.93444         0.000000      0.000000     -0.004056
      1.88501      1.88501     26.56052         0.000000      0.000000     -0.222691
      0.00000      0.00000     41.55002         0.000000     -0.000000      0.222691
      0.00000      0.00000     37.91230         0.000000     -0.000000     -0.013881
      1.88501      1.88501     30.19824         0.000000     -0.000000      0.013881
      1.88501      1.88501     23.70724         0.000000      0.000000     -0.392854
      0.00000      0.00000     44.40330         0.000000     -0.000000      0.392854
      0.00000      0.00000     35.05895         0.000000     -0.000000      0.002252
      1.88501      1.88501     33.05159         0.000000      0.000000     -0.002252
      0.00000      0.00000     39.73113         0.000000      0.000000     -0.048029
      0.00000      1.88501     26.08354         0.000000     -0.000000     -0.018017
      0.00000      1.88501     42.02700         0.000000      0.000000      0.018017
      1.88501      0.00000     26.08354         0.000000      0.000000     -0.018017
      1.88501      0.00000     42.02700         0.000000     -0.000000      0.018017
      1.88501      1.88501     28.37941         0.000000     -0.000000      0.048029
      1.88501      0.00000     37.43526         0.000000     -0.000000     -0.002752
      1.88501      0.00000     30.67528         0.000000      0.000000      0.002752
      0.00000      1.88501     37.43526         0.000000     -0.000000     -0.002752
      0.00000      1.88501     30.67528         0.000000      0.000000      0.002752
 -----------------------------------------------------------------------------------
    total drift:                                0.000000      0.000000      0.000000


--------------------------------------------------------------------------------------------------------



  FREE ENERGIE OF THE ION-ELECTRON SYSTEM (eV)
  ---------------------------------------------------
  free  energy   TOTEN  =      -193.55099455 eV

  energy  without entropy=     -193.55099455  energy(sigma->0) =     -193.55099455
 


--------------------------------------------------------------------------------------------------------


    POTLOK:  cpu time    0.5147: real time    0.5147


--------------------------------------------------------------------------------------------------------


     LOOP+:  cpu time  135.1882: real time  140.2749
    4ORBIT:  cpu time    0.0000: real time    0.0000
 


 total charge     
 
# of ion       s       p       d       f       tot
--------------------------------------------------
    1        2.159   6.376   0.919   0.100   9.554
    2        2.159   6.376   0.919   0.100   9.554
    3        2.160   6.402   0.964   0.105   9.631
    4        2.160   6.402   0.964   0.105   9.631
    5        0.578   1.041   2.739   0.000   4.358
    6        0.578   1.041   2.739   0.000   4.358
    7        0.578   1.035   2.742   0.000   4.354
    8        0.578   1.035   2.742   0.000   4.354
    9        1.317   2.439   0.000   0.000   3.756
   10        1.317   2.439   0.000   0.000   3.756
   11        1.318   2.461   0.000   0.000   3.779
   12        1.318   2.461   0.000   0.000   3.779
   13        1.576   3.429   0.000   0.000   5.005
   14        1.575   3.410   0.000   0.000   4.984
   15        1.552   3.537   0.000   0.000   5.088
   16        1.552   3.537   0.000   0.000   5.088
   17        1.575   3.410   0.000   0.000   4.984
   18        1.576   3.429   0.000   0.000   5.005
   19        1.575   3.410   0.000   0.000   4.985
   20        1.552   3.536   0.000   0.000   5.087
   21        1.552   3.536   0.000   0.000   5.087
   22        1.575   3.410   0.000   0.000   4.985
--------------------------------------------------
tot         31.877  74.151  14.727   0.410 121.165

 

 total amount of memory used by VASP MPI-rank0    48253. kBytes
=======================================================================

   base      :      30000. kBytes
   nonlr-proj:       5119. kBytes
   fftplans  :       3420. kBytes
   grid      :       6430. kBytes
   one-center:         90. kBytes
   wavefun   :       3194. kBytes
 
  
  
 General timing and accounting informations for this job:
 ========================================================
  
                  Total CPU time used (sec):      160.836
                            User time (sec):      151.929
                          System time (sec):        8.907
                         Elapsed time (sec):      168.599
  
                   Maximum memory used (kb):      136060.
                   Average memory used (kb):           0.
  
                          Minor page faults:        62169
                          Major page faults:           23
                 Voluntary context switches:        44376
