 vasp.5.4.4.18Apr17-6-g9f103f2a35 (build Jun 20 2017 18:00:50) complex          
  
 executed on             LinuxIFC date 2020.05.13  11:04:35
 running on  256 total cores
 distrk:  each k-point on  128 cores,    2 groups
 distr:  one band on NCORES_PER_BAND=   8 cores,   16 groups


--------------------------------------------------------------------------------------------------------


 INCAR:
 POTCAR:    PAW_PBE Y_sv 25May2007                
 POTCAR:    PAW_PBE Ti 08Apr2002                  
 POTCAR:    PAW_PBE S 06Sep2000                   
 POTCAR:    PAW_PBE O 08Apr2002                   

 ----------------------------------------------------------------------------- 
|                                                                             |
|           W    W    AA    RRRRR   N    N  II  N    N   GGGG   !!!           |
|           W    W   A  A   R    R  NN   N  II  NN   N  G    G  !!!           |
|           W    W  A    A  R    R  N N  N  II  N N  N  G       !!!           |
|           W WW W  AAAAAA  RRRRR   N  N N  II  N  N N  G  GGG   !            |
|           WW  WW  A    A  R   R   N   NN  II  N   NN  G    G                |
|           W    W  A    A  R    R  N    N  II  N    N   GGGG   !!!           |
|                                                                             |
|      You have enabled k-point parallelism (KPAR>1).                         |
|      This developmental code was originally  written by Paul Kent at ORNL,  |
|      and carefully double checked in Vienna.                                |
|      GW as well as linear response parallelism added by Martijn Marsman     |
|      and Georg Kresse.                                                      |
|      Carefully verify results versus KPAR=1.                                |
|      Report problems to Paul Kent and Vienna.                               |
|                                                                             |
 ----------------------------------------------------------------------------- 

 POTCAR:    PAW_PBE Y_sv 25May2007                
   VRHFIN =Y: 4s4p5s4d                                                          
   LEXCH  = PE                                                                  
   EATOM  =  1046.9140 eV,   76.9460 Ry                                         
                                                                                
   TITEL  = PAW_PBE Y_sv 25May2007                                              
   LULTRA =        F    use ultrasoft PP ?                                      
   IUNSCR =        1    unscreen: 0-lin 1-nonlin 2-no                           
   RPACOR =    2.200    partial core radius                                     
   POMASS =   88.906; ZVAL   =   11.000    mass and valenz                      
   RCORE  =    2.800    outmost cutoff radius                                   
   RWIGS  =    3.430; RWIGS  =    1.815    wigner-seitz radius (au A)           
   ENMAX  =  202.626; ENMIN  =  151.970 eV                                      
   RCLOC  =    2.212    cutoff for local pot                                    
   LCOR   =        T    correct aug charges                                     
   LPAW   =        T    paw PP                                                  
   EAUG   =  470.889                                                            
   DEXC   =    0.000                                                            
   RMAX   =    2.863    core radius for proj-oper                               
   RAUG   =    1.300    factor for augmentation sphere                          
   RDEP   =    2.926    radius for radial grids                                 
   RDEPT  =    2.280    core radius for aug-charge                              
                                                                                
   Atomic configuration                                                         
   11 entries                                                                   
     n  l   j            E        occ.                                          
     1  0  0.50    -16863.0720   2.0000                                         
     2  0  0.50     -2309.2881   2.0000                                         
     2  1  1.50     -2055.5536   6.0000                                         
     3  0  0.50      -367.1837   2.0000                                         
     3  1  1.50      -284.8912   6.0000                                         
     3  2  2.50      -149.4324  10.0000                                         
     4  0  0.50       -46.3345   2.0000                                         
     5  0  0.50        -3.6387   1.0000                                         
     4  1  1.50       -26.3769   6.0000                                         
     4  2  2.50        -1.6291   2.0000                                         
     4  3  2.50        -1.3606   0.0000                                         
   Description                                                                  
     l       E           TYP  RCUT    TYP  RCUT                                 
     0    -46.3344714     23  2.600                                             
     0     -3.6387002     23  2.700                                             
     1    -26.3769044     23  2.600                                             
     1    -27.7374870     23  2.600                                             
     2     -1.6291019     23  2.600                                             
     2      0.1354037     23  2.600                                             
     3     -1.3605826     23  2.800                                             
  local pseudopotential read in
  partial core-charges read in
  partial kinetic energy density read in
  atomic valenz-charges read in
  non local Contribution for L=           0  read in
    real space projection operators read in
  non local Contribution for L=           0  read in
    real space projection operators read in
  non local Contribution for L=           1  read in
    real space projection operators read in
  non local Contribution for L=           1  read in
    real space projection operators read in
  non local Contribution for L=           2  read in
    real space projection operators read in
  non local Contribution for L=           2  read in
    real space projection operators read in
  non local Contribution for L=           3  read in
    real space projection operators read in
    PAW grid and wavefunctions read in
 
   number of l-projection  operators is LMAX  =           7
   number of lm-projection operators is LMMAX =          25
 
 POTCAR:    PAW_PBE Ti 08Apr2002                  
   VRHFIN =Ti: d3 s1                                                            
   LEXCH  = PE                                                                  
   EATOM  =    94.7928 eV,    6.9671 Ry                                         
                                                                                
   TITEL  = PAW_PBE Ti 08Apr2002                                                
   LULTRA =        F    use ultrasoft PP ?                                      
   IUNSCR =        1    unscreen: 0-lin 1-nonlin 2-no                           
   RPACOR =    2.200    partial core radius                                     
   POMASS =   47.880; ZVAL   =    4.000    mass and valenz                      
   RCORE  =    2.800    outmost cutoff radius                                   
   RWIGS  =    2.500; RWIGS  =    1.323    wigner-seitz radius (au A)           
   ENMAX  =  178.330; ENMIN  =  133.747 eV                                      
   RCLOC  =    2.215    cutoff for local pot                                    
   LCOR   =        T    correct aug charges                                     
   LPAW   =        T    paw PP                                                  
   EAUG   =  328.883                                                            
   DEXC   =    0.000                                                            
   RMAX   =    2.868    core radius for proj-oper                               
   RAUG   =    1.300    factor for augmentation sphere                          
   RDEP   =    2.885    radius for radial grids                                 
   RDEPT  =    2.320    core radius for aug-charge                              
                                                                                
   Atomic configuration                                                         
    9 entries                                                                   
     n  l   j            E        occ.                                          
     1  0  0.50     -4865.3608   2.0000                                         
     2  0  0.50      -533.1367   2.0000                                         
     2  1  1.50      -440.5031   6.0000                                         
     3  0  0.50       -59.3186   2.0000                                         
     3  1  1.50       -35.7012   6.0000                                         
     3  2  2.50        -1.9157   3.0000                                         
     4  0  0.50        -3.7291   1.0000                                         
     4  1  1.50        -4.0817   0.0000                                         
     4  3  2.50        -1.3606   0.0000                                         
   Description                                                                  
     l       E           TYP  RCUT    TYP  RCUT                                 
     2     -1.9156924     23  2.800                                             
     2     -0.4062961     23  2.800                                             
     0     -3.7290832     23  2.800                                             
     0     20.4087390     23  2.800                                             
     1     -5.4423304     23  2.800                                             
  local pseudopotential read in
  partial core-charges read in
  partial kinetic energy density read in
  atomic valenz-charges read in
  non local Contribution for L=           2  read in
    real space projection operators read in
  non local Contribution for L=           2  read in
    real space projection operators read in
  non local Contribution for L=           0  read in
    real space projection operators read in
  non local Contribution for L=           0  read in
    real space projection operators read in
  non local Contribution for L=           1  read in
    real space projection operators read in
    PAW grid and wavefunctions read in
 
   number of l-projection  operators is LMAX  =           5
   number of lm-projection operators is LMMAX =          15
 
 POTCAR:    PAW_PBE S 06Sep2000                   
   VRHFIN =S : s2p4                                                             
   LEXCH  = PE                                                                  
   EATOM  =   276.8230 eV,   20.3459 Ry                                         
                                                                                
   TITEL  = PAW_PBE S 06Sep2000                                                 
   LULTRA =        F    use ultrasoft PP ?                                      
   IUNSCR =        1    unscreen: 0-lin 1-nonlin 2-no                           
   RPACOR =    1.500    partial core radius                                     
   POMASS =   32.066; ZVAL   =    6.000    mass and valenz                      
   RCORE  =    1.900    outmost cutoff radius                                   
   RWIGS  =    2.200; RWIGS  =    1.164    wigner-seitz radius (au A)           
   ENMAX  =  258.689; ENMIN  =  194.016 eV                                      
   ICORE  =        2    local potential                                         
   LCOR   =        T    correct aug charges                                     
   LPAW   =        T    paw PP                                                  
   EAUG   =  335.092                                                            
   DEXC   =    0.000                                                            
   RMAX   =    1.942    core radius for proj-oper                               
   RAUG   =    1.300    factor for augmentation sphere                          
   RDEP   =    1.954    radius for radial grids                                 
   RDEPT  =    1.744    core radius for aug-charge                              
                                                                                
   Atomic configuration                                                         
    6 entries                                                                   
     n  l   j            E        occ.                                          
     1  0  0.50     -2405.8406   2.0000                                         
     2  0  0.50      -211.7007   2.0000                                         
     2  1  1.50      -156.4958   6.0000                                         
     3  0  0.50       -17.2562   2.0000                                         
     3  1  0.50        -7.0085   4.0000                                         
     3  2  1.50        -6.8029   0.0000                                         
   Description                                                                  
     l       E           TYP  RCUT    TYP  RCUT                                 
     0    -17.2561641     23  1.900                                             
     0    -15.8743224     23  1.900                                             
     1     -7.0085400     23  1.900                                             
     1     -2.7779785     23  1.900                                             
     2     -6.8029130     23  1.900                                             
  local pseudopotential read in
  partial core-charges read in
  partial kinetic energy density read in
  atomic valenz-charges read in
  non local Contribution for L=           0  read in
    real space projection operators read in
  non local Contribution for L=           0  read in
    real space projection operators read in
  non local Contribution for L=           1  read in
    real space projection operators read in
  non local Contribution for L=           1  read in
    real space projection operators read in
    PAW grid and wavefunctions read in
 
   number of l-projection  operators is LMAX  =           4
   number of lm-projection operators is LMMAX =           8
 
 POTCAR:    PAW_PBE O 08Apr2002                   
   VRHFIN =O: s2p4                                                              
   LEXCH  = PE                                                                  
   EATOM  =   432.3788 eV,   31.7789 Ry                                         
                                                                                
   TITEL  = PAW_PBE O 08Apr2002                                                 
   LULTRA =        F    use ultrasoft PP ?                                      
   IUNSCR =        1    unscreen: 0-lin 1-nonlin 2-no                           
   RPACOR =    1.200    partial core radius                                     
   POMASS =   16.000; ZVAL   =    6.000    mass and valenz                      
   RCORE  =    1.520    outmost cutoff radius                                   
   RWIGS  =    1.550; RWIGS  =    0.820    wigner-seitz radius (au A)           
   ENMAX  =  400.000; ENMIN  =  300.000 eV                                      
   ICORE  =        2    local potential                                         
   LCOR   =        T    correct aug charges                                     
   LPAW   =        T    paw PP                                                  
   EAUG   =  605.392                                                            
   DEXC   =    0.000                                                            
   RMAX   =    1.553    core radius for proj-oper                               
   RAUG   =    1.300    factor for augmentation sphere                          
   RDEP   =    1.550    radius for radial grids                                 
   RDEPT  =    1.329    core radius for aug-charge                              
                                                                                
   Atomic configuration                                                         
    4 entries                                                                   
     n  l   j            E        occ.                                          
     1  0  0.50      -514.6923   2.0000                                         
     2  0  0.50       -23.9615   2.0000                                         
     2  1  0.50        -9.0305   4.0000                                         
     3  2  1.50        -9.5241   0.0000                                         
   Description                                                                  
     l       E           TYP  RCUT    TYP  RCUT                                 
     0    -23.9615318     23  1.200                                             
     0     -9.5240782     23  1.200                                             
     1     -9.0304911     23  1.520                                             
     1      8.1634956     23  1.520                                             
     2     -9.5240782      7  1.500                                             
  local pseudopotential read in
  partial core-charges read in
  partial kinetic energy density read in
  kinetic energy density of atom read in
  atomic valenz-charges read in
  non local Contribution for L=           0  read in
    real space projection operators read in
  non local Contribution for L=           0  read in
    real space projection operators read in
  non local Contribution for L=           1  read in
    real space projection operators read in
  non local Contribution for L=           1  read in
    real space projection operators read in
    PAW grid and wavefunctions read in
 
   number of l-projection  operators is LMAX  =           4
   number of lm-projection operators is LMMAX =           8
 
 Optimization of the real space projectors (new method)

 maximal supplied QI-value         = 13.42
 optimisation between [QCUT,QGAM] = [ 11.67, 23.35] = [ 38.16,152.62] Ry 
 Optimized for a Real-space Cutoff    1.68 Angstroem

   l    n(q)    QCUT    max X(q) W(low)/X(q) W(high)/X(q)  e(spline) 
   0     12    11.673    14.902    0.22E-04    0.24E-05    0.52E-07
   0     12    11.673     9.294    0.34E-04    0.58E-05    0.89E-07
   1     11    11.673    69.520    0.10E-04    0.47E-04    0.49E-06
   1     11    11.673    72.085    0.10E-04    0.48E-04    0.50E-06
   2     11    11.673    62.934    0.94E-04    0.14E-04    0.82E-06
   2     11    11.673    49.749    0.91E-04    0.13E-04    0.79E-06
   3     10    11.673     8.311    0.92E-04    0.21E-04    0.59E-06
 Optimization of the real space projectors (new method)

 maximal supplied QI-value         = 13.42
 optimisation between [QCUT,QGAM] = [ 11.67, 23.35] = [ 38.16,152.62] Ry 
 Optimized for a Real-space Cutoff    1.58 Angstroem

   l    n(q)    QCUT    max X(q) W(low)/X(q) W(high)/X(q)  e(spline) 
   2     10    11.673    49.363    0.16E-03    0.28E-03    0.91E-06
   2     10    11.673    47.669    0.16E-03    0.27E-03    0.88E-06
   0     11    11.673    26.374    0.54E-04    0.10E-03    0.52E-06
   0     11    11.673    11.549    0.41E-04    0.83E-04    0.43E-06
   1     11    11.673     9.492    0.36E-04    0.11E-04    0.17E-06
 Optimization of the real space projectors (new method)

 maximal supplied QI-value         = 19.84
 optimisation between [QCUT,QGAM] = [ 11.51, 23.22] = [ 37.09,150.92] Ry 
 Optimized for a Real-space Cutoff    1.21 Angstroem

   l    n(q)    QCUT    max X(q) W(low)/X(q) W(high)/X(q)  e(spline) 
   0      8    11.508   187.594    0.96E-04    0.18E-03    0.54E-07
   0      8    11.508   164.243    0.96E-04    0.18E-03    0.54E-07
   1      8    11.508    67.533    0.18E-03    0.65E-04    0.94E-07
   1      8    11.508    50.729    0.18E-03    0.63E-04    0.92E-07
 Optimization of the real space projectors (new method)

 maximal supplied QI-value         = 24.76
 optimisation between [QCUT,QGAM] = [ 11.64, 23.27] = [ 37.91,151.63] Ry 
 Optimized for a Real-space Cutoff    1.14 Angstroem

   l    n(q)    QCUT    max X(q) W(low)/X(q) W(high)/X(q)  e(spline) 
   0      8    11.635    20.381    0.10E-03    0.33E-03    0.24E-06
   0      8    11.635    15.268    0.11E-03    0.35E-03    0.26E-06
   1      7    11.635     5.964    0.24E-03    0.31E-03    0.30E-06
   1      7    11.635     5.382    0.22E-03    0.25E-03    0.26E-06

 ----------------------------------------------------------------------------- 
|                                                                             |
|  ADVICE TO THIS USER RUNNING 'VASP/VAMP'   (HEAR YOUR MASTER'S VOICE ...):  |
|                                                                             |
|      You enforced a specific xc-type in the INCAR file,                     |
|      a different type was found on the POTCAR file                          |
|          I HOPE YOU KNOW, WHAT YOU ARE  DOING                               |
|                                                                             |
 ----------------------------------------------------------------------------- 

  PAW_PBE Y_sv 25May2007                :
 energy of atom  1       EATOM=-1046.9140
 kinetic energy error for atom=    0.0008 (will be added to EATOM!!)
  PAW_PBE Ti 08Apr2002                  :
 energy of atom  2       EATOM=  -94.7928
 kinetic energy error for atom=    0.0002 (will be added to EATOM!!)
  PAW_PBE S 06Sep2000                   :
 energy of atom  3       EATOM= -276.8230
 kinetic energy error for atom=    0.0016 (will be added to EATOM!!)
  PAW_PBE O 08Apr2002                   :
 energy of atom  4       EATOM= -432.3788
 kinetic energy error for atom=    0.0208 (will be added to EATOM!!)
 
 
 POSCAR: Y12 Ti12 S12 O30                        
  positions in direct lattice
  No initial velocities read in
 exchange correlation table for  LEXCH =       14
   RHO(1)=    0.500       N(1)  =     2000
   RHO(2)=  100.500       N(2)  =     4000
 


--------------------------------------------------------------------------------------------------------


 ion  position               nearest neighbor table
   1  0.500  0.500  0.383-  39 2.41  41 2.41  41 2.41  39 2.41  26 2.81  26 2.81  26 2.81  26 2.81
                            29 2.88  14 3.32  14 3.32  14 3.32  14 3.32
   2  0.000  0.000  0.217-  38 2.41  40 2.41  38 2.41  40 2.41  25 2.81  25 2.81  25 2.81  25 2.81
                            13 3.32  13 3.32  13 3.32  13 3.32
   3  0.000  0.000  0.283-  44 2.41  46 2.41  46 2.41  44 2.41  28 2.81  28 2.81  28 2.81  28 2.81
                            27 2.88  16 3.32  16 3.32  16 3.32  16 3.32
   4  0.500  0.500  0.317-  43 2.41  45 2.41  43 2.41  45 2.41  27 2.81  27 2.81  27 2.81  27 2.81
                            28 2.88  15 3.32  15 3.32  15 3.32  15 3.32
   5  0.500  0.500  0.583-  49 2.41  51 2.41  51 2.41  49 2.41  30 2.81  30 2.81  30 2.81  30 2.81
                            33 2.88  18 3.32  18 3.32  18 3.32  18 3.32
   6  0.000  0.000  0.417-  48 2.41  50 2.41  48 2.41  50 2.41  29 2.81  29 2.81  29 2.81  29 2.81
                            26 2.88  17 3.32  17 3.32  17 3.32  17 3.32
   7  0.000  0.000  0.483-  54 2.41  56 2.41  56 2.41  54 2.41  32 2.81  32 2.81  32 2.81  32 2.81
                            31 2.88  20 3.32  20 3.32  20 3.32  20 3.32
   8  0.500  0.500  0.517-  53 2.41  55 2.41  53 2.41  55 2.41  31 2.81  31 2.81  31 2.81  31 2.81
                            32 2.88  19 3.32  19 3.32  19 3.32  19 3.32
   9  0.500  0.500  0.783-  59 2.41  61 2.41  61 2.41  59 2.41  34 2.81  34 2.81  34 2.81  34 2.81
                            22 3.32  22 3.32  22 3.32  22 3.32
  10  0.000  0.000  0.617-  58 2.41  60 2.41  58 2.41  60 2.41  33 2.81  33 2.81  33 2.81  33 2.81
                            30 2.88  21 3.32  21 3.32  21 3.32  21 3.32
  11  0.000  0.000  0.683-  64 2.41  66 2.41  66 2.41  64 2.41  36 2.81  36 2.81  36 2.81  36 2.81
                            35 2.88  24 3.32  24 3.32  24 3.32  24 3.32
  12  0.500  0.500  0.717-  63 2.41  65 2.41  63 2.41  65 2.41  35 2.81  35 2.81  35 2.81  35 2.81
                            36 2.88  23 3.32  23 3.32  23 3.32  23 3.32
  13  0.500  0.500  0.234-  42 1.82  40 1.94  38 1.94  40 1.94  38 1.94  25 2.85   2 3.32   2 3.32
                             2 3.32   2 3.32
  14  0.000  0.000  0.366-  37 1.82  39 1.94  41 1.94  39 1.94  41 1.94  26 2.85   1 3.32   1 3.32
                             1 3.32   1 3.32
  15  0.000  0.000  0.334-  37 1.82  43 1.94  45 1.94  45 1.94  43 1.94  27 2.85   4 3.32   4 3.32
                             4 3.32   4 3.32
  16  0.500  0.500  0.266-  42 1.82  44 1.94  46 1.94  44 1.94  46 1.94  28 2.85   3 3.32   3 3.32
                             3 3.32   3 3.32
  17  0.500  0.500  0.434-  52 1.82  50 1.94  48 1.94  50 1.94  48 1.94  29 2.85   6 3.32   6 3.32
                             6 3.32   6 3.32
  18  0.000  0.000  0.566-  47 1.82  49 1.94  51 1.94  49 1.94  51 1.94  30 2.85   5 3.32   5 3.32
                             5 3.32   5 3.32
  19  0.000  0.000  0.534-  47 1.82  53 1.94  55 1.94  55 1.94  53 1.94  31 2.85   8 3.32   8 3.32
                             8 3.32   8 3.32
  20  0.500  0.500  0.466-  52 1.82  54 1.94  56 1.94  54 1.94  56 1.94  32 2.85   7 3.32   7 3.32
                             7 3.32   7 3.32
  21  0.500  0.500  0.634-  62 1.82  60 1.94  58 1.94  60 1.94  58 1.94  33 2.85  10 3.32  10 3.32
                            10 3.32  10 3.32
  22  0.000  0.000  0.766-  57 1.82  59 1.94  61 1.94  59 1.94  61 1.94  34 2.85   9 3.32   9 3.32
                             9 3.32   9 3.32
  23  0.000  0.000  0.734-  57 1.82  63 1.94  65 1.94  65 1.94  63 1.94  35 2.85  12 3.32  12 3.32
                            12 3.32  12 3.32
  24  0.500  0.500  0.666-  62 1.82  64 1.94  66 1.94  64 1.94  66 1.94  36 2.85  11 3.32  11 3.32
                            11 3.32  11 3.32
  25  0.500  0.500  0.209-   2 2.81   2 2.81   2 2.81   2 2.81  13 2.85
  26  0.000  0.000  0.391-   1 2.81   1 2.81   1 2.81   1 2.81  14 2.85   6 2.88
  27  0.000  0.000  0.309-   4 2.81   4 2.81   4 2.81   4 2.81  15 2.85   3 2.88
  28  0.500  0.500  0.291-   3 2.81   3 2.81   3 2.81   3 2.81  16 2.85   4 2.88
  29  0.500  0.500  0.409-   6 2.81   6 2.81   6 2.81   6 2.81  17 2.85   1 2.88
  30  0.000  0.000  0.591-   5 2.81   5 2.81   5 2.81   5 2.81  18 2.85  10 2.88
  31  0.000  0.000  0.509-   8 2.81   8 2.81   8 2.81   8 2.81  19 2.85   7 2.88
  32  0.500  0.500  0.491-   7 2.81   7 2.81   7 2.81   7 2.81  20 2.85   8 2.88
  33  0.500  0.500  0.609-  10 2.81  10 2.81  10 2.81  10 2.81  21 2.85   5 2.88
  34  0.000  0.000  0.791-   9 2.81   9 2.81   9 2.81   9 2.81  22 2.85
  35  0.000  0.000  0.709-  12 2.81  12 2.81  12 2.81  12 2.81  23 2.85  11 2.88
  36  0.500  0.500  0.691-  11 2.81  11 2.81  11 2.81  11 2.81  24 2.85  12 2.88
  37  0.000  0.000  0.350-  14 1.82  15 1.82
  38  0.000  0.500  0.230-  13 1.94  13 1.94   2 2.41   2 2.41
  39  0.000  0.500  0.370-  14 1.94  14 1.94   1 2.41   1 2.41
  40  0.500  0.000  0.230-  13 1.94  13 1.94   2 2.41   2 2.41
  41  0.500  0.000  0.370-  14 1.94  14 1.94   1 2.41   1 2.41
  42  0.500  0.500  0.250-  13 1.82  16 1.82
  43  0.500  0.000  0.330-  15 1.94  15 1.94   4 2.41   4 2.41
  44  0.500  0.000  0.270-  16 1.94  16 1.94   3 2.41   3 2.41
  45  0.000  0.500  0.330-  15 1.94  15 1.94   4 2.41   4 2.41
  46  0.000  0.500  0.270-  16 1.94  16 1.94   3 2.41   3 2.41
  47  0.000  0.000  0.550-  19 1.82  18 1.82
  48  0.000  0.500  0.430-  17 1.94  17 1.94   6 2.41   6 2.41
  49  0.000  0.500  0.570-  18 1.94  18 1.94   5 2.41   5 2.41
  50  0.500  0.000  0.430-  17 1.94  17 1.94   6 2.41   6 2.41
  51  0.500  0.000  0.570-  18 1.94  18 1.94   5 2.41   5 2.41
  52  0.500  0.500  0.450-  20 1.82  17 1.82
  53  0.500  0.000  0.530-  19 1.94  19 1.94   8 2.41   8 2.41
  54  0.500  0.000  0.470-  20 1.94  20 1.94   7 2.41   7 2.41
  55  0.000  0.500  0.530-  19 1.94  19 1.94   8 2.41   8 2.41
  56  0.000  0.500  0.470-  20 1.94  20 1.94   7 2.41   7 2.41
  57  0.000  0.000  0.750-  22 1.82  23 1.82
  58  0.000  0.500  0.630-  21 1.94  21 1.94  10 2.41  10 2.41
  59  0.000  0.500  0.770-  22 1.94  22 1.94   9 2.41   9 2.41
  60  0.500  0.000  0.630-  21 1.94  21 1.94  10 2.41  10 2.41
  61  0.500  0.000  0.770-  22 1.94  22 1.94   9 2.41   9 2.41
  62  0.500  0.500  0.650-  21 1.82  24 1.82
  63  0.500  0.000  0.730-  23 1.94  23 1.94  12 2.41  12 2.41
  64  0.500  0.000  0.670-  24 1.94  24 1.94  11 2.41  11 2.41
  65  0.000  0.500  0.730-  23 1.94  23 1.94  12 2.41  12 2.41
  66  0.000  0.500  0.670-  24 1.94  24 1.94  11 2.41  11 2.41
 
  LATTYP: Found a simple tetragonal cell.
 ALAT       =     3.7700230000
 C/A-ratio  =    30.1105767790
  
  Lattice vectors:
  
 A1 = (   3.7700230000,   0.0000000000,   0.0000000000)
 A2 = (   0.0000000000,   3.7700230000,   0.0000000000)
 A3 = (   0.0000000000,   0.0000000000, 113.5175670000)


Analysis of symmetry for initial positions (statically):
=====================================================================
 Subroutine PRICEL returns:
 Original cell was already a primitive cell.
 

 Routine SETGRP: Setting up the symmetry group for a 
 simple tetragonal supercell.


 Subroutine GETGRP returns: Found 16 space group operations
 (whereof  8 operations were pure point group operations)
 out of a pool of 16 trial point group operations.


The static configuration has the point symmetry C_4v.
 The point group associated with its full space group is D_4h.


Analysis of symmetry for dynamics (positions and initial velocities):
=====================================================================
 Subroutine PRICEL returns:
 Original cell was already a primitive cell.
 

 Routine SETGRP: Setting up the symmetry group for a 
 simple tetragonal supercell.


 Subroutine GETGRP returns: Found 16 space group operations
 (whereof  8 operations were pure point group operations)
 out of a pool of 16 trial point group operations.


The dynamic configuration has the point symmetry C_4v.
 The point group associated with its full space group is D_4h.


 Subroutine INISYM returns: Found 16 space group operations
 (whereof  8 operations are pure point group operations),
 and found     1 'primitive' translations

 
 
 KPOINTS: Automatic mesh                          

Automatic generation of k-mesh.
Space group operators:
 irot       det(A)        alpha          n_x          n_y          n_z        tau_x        tau_y        tau_z
    1     1.000000     0.000000     1.000000     0.000000     0.000000     0.000000     0.000000     0.000000
    2     1.000000    90.000000     0.000000     0.000000    -1.000000     0.000000     0.000000     0.000000
    3     1.000000   180.000000     0.000000     0.000000     1.000000     0.000000     0.000000     0.000000
    4     1.000000    90.000000     0.000000     0.000000     1.000000     0.000000     0.000000     0.000000
    5    -1.000000   180.000000     0.000000     1.000000     0.000000     0.000000     0.000000     0.000000
    6    -1.000000   180.000000     0.707107     0.707107     0.000000     0.000000     0.000000     0.000000
    7    -1.000000   180.000000     1.000000     0.000000     0.000000     0.000000     0.000000     0.000000
    8    -1.000000   180.000000     0.707107    -0.707107     0.000000     0.000000     0.000000     0.000000
    9    -1.000000     0.000000     1.000000     0.000000     0.000000     0.500000     0.500000     0.000000
   10    -1.000000    90.000000     0.000000     0.000000    -1.000000     0.500000     0.500000     0.000000
   11    -1.000000   180.000000     0.000000     0.000000     1.000000     0.500000     0.500000     0.000000
   12    -1.000000    90.000000     0.000000     0.000000     1.000000     0.500000     0.500000     0.000000
   13     1.000000   180.000000     0.000000     1.000000     0.000000     0.500000     0.500000     0.000000
   14     1.000000   180.000000     0.707107     0.707107     0.000000     0.500000     0.500000     0.000000
   15     1.000000   180.000000     1.000000     0.000000     0.000000     0.500000     0.500000     0.000000
   16     1.000000   180.000000     0.707107    -0.707107     0.000000     0.500000     0.500000     0.000000
 
 Subroutine IBZKPT returns following result:
 ===========================================
 
 Found     10 irreducible k-points:
 
 Following reciprocal coordinates:
            Coordinates               Weight
  0.000000  0.000000  0.000000      1.000000
  0.166667  0.000000  0.000000      4.000000
  0.333333  0.000000  0.000000      4.000000
  0.500000  0.000000  0.000000      2.000000
  0.166667  0.166667  0.000000      4.000000
  0.333333  0.166667  0.000000      8.000000
  0.500000  0.166667  0.000000      4.000000
  0.333333  0.333333  0.000000      4.000000
  0.500000  0.333333  0.000000      4.000000
  0.500000  0.500000  0.000000      1.000000
 
 Following cartesian coordinates:
            Coordinates               Weight
  0.000000  0.000000  0.000000      1.000000
  0.044208  0.000000  0.000000      4.000000
  0.088417  0.000000  0.000000      4.000000
  0.132625  0.000000  0.000000      2.000000
  0.044208  0.044208  0.000000      4.000000
  0.088417  0.044208  0.000000      8.000000
  0.132625  0.044208  0.000000      4.000000
  0.088417  0.088417  0.000000      4.000000
  0.132625  0.088417  0.000000      4.000000
  0.132625  0.132625  0.000000      1.000000
 


--------------------------------------------------------------------------------------------------------




 Dimension of arrays:
   k-points           NKPTS =     10   k-points in BZ     NKDIM =     10   number of bands    NBANDS=    272
   number of dos      NEDOS =   2000   number of ions     NIONS =     66
   non local maximal  LDIM  =      7   non local SUM 2l+1 LMDIM =     25
   total plane-waves  NPLWV = 677376
   max r-space proj   IRMAX =   8329   max aug-charges    IRDMAX=  30462
   dimension x,y,z NGX =    28 NGY =   28 NGZ =  864
   dimension x,y,z NGXF=    56 NGYF=   56 NGZF= 1728
   support grid    NGXF=    56 NGYF=   56 NGZF= 1728
   ions per type =              12  12  12  30
   NGX,Y,Z   is equivalent  to a cutoff of  12.35, 12.35, 12.65 a.u.
   NGXF,Y,Z  is equivalent  to a cutoff of  24.69, 24.69, 25.31 a.u.

 SYSTEM =  Generic Input                           
 POSCAR =  Y12 Ti12 S12 O30                        

 Startparameter for this run:
   NWRITE =      2    write-flag & timer
   PREC   = accura    normal or accurate (medium, high low for compatibility)
   ISTART =      0    job   : 0-new  1-cont  2-samecut
   ICHARG =      2    charge: 1-file 2-atom 10-const
   ISPIN  =      1    spin polarized calculation?
   LNONCOLLINEAR =      F non collinear calculations
   LSORBIT =      F    spin-orbit coupling
   INIWAV =      1    electr: 0-lowe 1-rand  2-diag
   LASPH  =      T    aspherical Exc in radial PAW
   METAGGA=      F    non-selfconsistent MetaGGA calc.

 Electronic Relaxation 1
   ENCUT  =  520.0 eV  38.22 Ry    6.18 a.u.   7.01  7.01211.07*2*pi/ulx,y,z
   ENINI  =  520.0     initial cutoff
   ENAUG  =  605.4 eV  augmentation charge cutoff
   NELM   =    200;   NELMIN=  2; NELMDL=  0     # of ELM steps 
   EDIFF  = 0.1E-05   stopping-criterion for ELM
   LREAL  =      T    real-space projection
   NLSPLINE    = F    spline interpolate recip. space projectors
   LCOMPAT=      F    compatible to vasp.4.4
   GGA_COMPAT  = T    GGA compatible to vasp.4.4-vasp.4.6
   LMAXPAW     = -100 max onsite density
   LMAXMIX     =    2 max onsite mixed and CHGCAR
   VOSKOWN=      0    Vosko Wilk Nusair interpolation
   ROPT   =   -0.00025  -0.00025  -0.00025  -0.00025
 Ionic relaxation
   EDIFFG = -.1E-01   stopping-criterion for IOM
   NSW    =      0    number of steps for IOM
   NBLOCK =      1;   KBLOCK =      1    inner block; outer block 
   IBRION =     -1    ionic relax: 0-MD 1-quasi-New 2-CG
   NFREE  =      0    steps in history (QN), initial steepest desc. (CG)
   ISIF   =      2    stress and relaxation
   IWAVPR =     11    prediction:  0-non 1-charg 2-wave 3-comb
   ISYM   =      2    0-nonsym 1-usesym 2-fastsym
   LCORR  =      T    Harris-Foulkes like correction to forces

   POTIM  = 0.5000    time-step for ionic-motion
   TEIN   =    0.0    initial temperature
   TEBEG  =    0.0;   TEEND  =   0.0 temperature during run
   SMASS  =  -3.00    Nose mass-parameter (am)
   estimated Nose-frequenzy (Omega)   =  0.10E-29 period in steps =****** mass=  -0.325E-27a.u.
   SCALEE = 1.0000    scale energy and forces
   NPACO  =    256;   APACO  = 16.0  distance and # of slots for P.C.
   PSTRESS=    0.0 pullay stress

  Mass of Ions in am
   POMASS =  88.91 47.88 32.07 16.00
  Ionic Valenz
   ZVAL   =  11.00  4.00  6.00  6.00
  Atomic Wigner-Seitz radii
   RWIGS  =  -1.00 -1.00 -1.00 -1.00
  virtual crystal weights 
   VCA    =   1.00  1.00  1.00  1.00
   NELECT =     432.0000    total number of electrons
   NUPDOWN=      -1.0000    fix difference up-down

 DOS related values:
   EMIN   =  10.00;   EMAX   =-10.00  energy-range for DOS
   EFERMI =   0.00
   ISMEAR =     0;   SIGMA  =   0.02  broadening in eV -4-tet -1-fermi 0-gaus

 Electronic relaxation 2 (details)
   IALGO  =     38    algorithm
   LDIAG  =      T    sub-space diagonalisation (order eigenvalues)
   LSUBROT=      F    optimize rotation matrix (better conditioning)
   TURBO    =      0    0=normal 1=particle mesh
   IRESTART =      0    0=no restart 2=restart with 2 vectors
   NREBOOT  =      0    no. of reboots
   NMIN     =      0    reboot dimension
   EREF     =   0.00    reference energy to select bands
   IMIX   =      4    mixing-type and parameters
     AMIX     =   0.40;   BMIX     =  1.00
     AMIX_MAG =   1.60;   BMIX_MAG =  1.00
     AMIN     =   0.05
     WC   =   100.;   INIMIX=   1;  MIXPRE=   1;  MAXMIX= -45

 Intra band minimization:
   WEIMIN = 0.0000     energy-eigenvalue tresh-hold
   EBREAK =  0.92E-09  absolut break condition
   DEPER  =   0.30     relativ break condition  

   TIME   =   0.40     timestep for ELM

  volume/ion in A,a.u.               =      24.45       164.97
  Fermi-wavevector in a.u.,A,eV,Ry     =   1.055162  1.993967 15.148270  1.113366
  Thomas-Fermi vector in A             =   2.190350
 
 Write flags
   LWAVE        =      F    write WAVECAR
   LDOWNSAMPLE  =      F    k-point downsampling of WAVECAR
   LCHARG       =      F    write CHGCAR
   LVTOT        =      F    write LOCPOT, total local potential
   LVHAR        =      T    write LOCPOT, Hartree potential only
   LELF         =      F    write electronic localiz. function (ELF)
   LORBIT       =     11    0 simple, 1 ext, 2 COOP (PROOUT), +10 PAW based schemes


 Dipole corrections
   LMONO  =      F    monopole corrections only (constant potential shift)
   LDIPOL =      F    correct potential (dipole corrections)
   IDIPOL =      0    1-x, 2-y, 3-z, 4-all directions 
   EPSILON=  1.0000000 bulk dielectric constant

 Core level calculations are selected ICORELEVEL =  1
 Exchange correlation treatment:
   GGA     =    PS    GGA type
   LEXCH   =    14    internal setting for exchange type
   VOSKOWN=      0    Vosko Wilk Nusair interpolation
   LHFCALC =     F    Hartree Fock is set to
   LHFONE  =     F    Hartree Fock one center treatment
   AEXX    =    0.0000 exact exchange contribution

 Linear response parameters
   LEPSILON=     F    determine dielectric tensor
   LRPA    =     F    only Hartree local field effects (RPA)
   LNABLA  =     F    use nabla operator in PAW spheres
   LVEL    =     F    velocity operator in full k-point grid
   LINTERFAST=   F  fast interpolation
   KINTER  =     0    interpolate to denser k-point grid
   CSHIFT  =0.1000    complex shift for real part using Kramers Kronig
   OMEGAMAX=  -1.0    maximum frequency
   DEG_THRESHOLD= 0.2000000E-02 threshold for treating states as degnerate
   RTIME   =   -0.100 relaxation time in fs
  (WPLASMAI=    0.000 imaginary part of plasma frequency in eV, 0.658/RTIME)
   DFIELD  = 0.0000000 0.0000000 0.0000000 field for delta impulse in time
 
 Orbital magnetization related:
   ORBITALMAG=     F  switch on orbital magnetization
   LCHIMAG   =     F  perturbation theory with respect to B field
   DQ        =  0.001000  dq finite difference perturbation B field
   LLRAUG    =     F  two centre corrections for induced B field



--------------------------------------------------------------------------------------------------------


 Static calculation
 charge density and potential will be updated during run
 non-spin polarized calculation
 Variant of blocked Davidson
 Davidson routine will perform the subspace rotation
 perform sub-space diagonalisation
    after iterative eigenvector-optimisation
 modified Broyden-mixing scheme, WC =      100.0
 initial mixing is a Kerker type mixing with AMIX =  0.4000 and BMIX =      1.0000
 Hartree-type preconditioning will be used
 using additional bands           56
 real space projection scheme for non local part
 use partial core corrections
 calculate Harris-corrections to forces 
   (improved forces if not selfconsistent)
 use gradient corrections 
 use of overlap-Matrix (Vanderbilt PP)
 Gauss-broadening in eV      SIGMA  =   0.02


--------------------------------------------------------------------------------------------------------


  energy-cutoff  :      520.00
  volume of cell :     1613.43
      direct lattice vectors                 reciprocal lattice vectors
     3.770023000  0.000000000  0.000000000     0.265250371  0.000000000  0.000000000
     0.000000000  3.770023000  0.000000000     0.000000000  0.265250371  0.000000000
     0.000000000  0.000000000113.517567000     0.000000000  0.000000000  0.008809209

  length of vectors
     3.770023000  3.770023000113.517567000     0.265250371  0.265250371  0.008809209


 
 k-points in units of 2pi/SCALE and weight: Automatic mesh                          
   0.00000000  0.00000000  0.00000000       0.028
   0.04420840  0.00000000  0.00000000       0.111
   0.08841679  0.00000000  0.00000000       0.111
   0.13262519  0.00000000  0.00000000       0.056
   0.04420840  0.04420840  0.00000000       0.111
   0.08841679  0.04420840  0.00000000       0.222
   0.13262519  0.04420840  0.00000000       0.111
   0.08841679  0.08841679  0.00000000       0.111
   0.13262519  0.08841679  0.00000000       0.111
   0.13262519  0.13262519  0.00000000       0.028
 
 k-points in reciprocal lattice and weights: Automatic mesh                          
   0.00000000  0.00000000  0.00000000       0.028
   0.16666667  0.00000000  0.00000000       0.111
   0.33333333  0.00000000  0.00000000       0.111
   0.50000000  0.00000000  0.00000000       0.056
   0.16666667  0.16666667  0.00000000       0.111
   0.33333333  0.16666667  0.00000000       0.222
   0.50000000  0.16666667  0.00000000       0.111
   0.33333333  0.33333333  0.00000000       0.111
   0.50000000  0.33333333  0.00000000       0.111
   0.50000000  0.50000000  0.00000000       0.028
 
 position of ions in fractional coordinates (direct lattice) 
   0.50000000  0.50000000  0.38344600
   0.00000000  0.00000000  0.21655400
   0.00000000  0.00000000  0.28344600
   0.50000000  0.50000000  0.31655400
   0.50000000  0.50000000  0.58344600
   0.00000000  0.00000000  0.41655400
   0.00000000  0.00000000  0.48344600
   0.50000000  0.50000000  0.51655400
   0.50000000  0.50000000  0.78344600
   0.00000000  0.00000000  0.61655400
   0.00000000  0.00000000  0.68344600
   0.50000000  0.50000000  0.71655400
   0.50000000  0.50000000  0.23397700
   0.00000000  0.00000000  0.36602300
   0.00000000  0.00000000  0.33397700
   0.50000000  0.50000000  0.26602300
   0.50000000  0.50000000  0.43397700
   0.00000000  0.00000000  0.56602300
   0.00000000  0.00000000  0.53397700
   0.50000000  0.50000000  0.46602300
   0.50000000  0.50000000  0.63397700
   0.00000000  0.00000000  0.76602300
   0.00000000  0.00000000  0.73397700
   0.50000000  0.50000000  0.66602300
   0.50000000  0.50000000  0.20884200
   0.00000000  0.00000000  0.39115800
   0.00000000  0.00000000  0.30884200
   0.50000000  0.50000000  0.29115800
   0.50000000  0.50000000  0.40884200
   0.00000000  0.00000000  0.59115800
   0.00000000  0.00000000  0.50884200
   0.50000000  0.50000000  0.49115800
   0.50000000  0.50000000  0.60884200
   0.00000000  0.00000000  0.79115800
   0.00000000  0.00000000  0.70884200
   0.50000000  0.50000000  0.69115800
   0.00000000  0.00000000  0.35000000
   0.00000000  0.50000000  0.22977500
   0.00000000  0.50000000  0.37022500
   0.50000000  0.00000000  0.22977500
   0.50000000  0.00000000  0.37022500
   0.50000000  0.50000000  0.25000000
   0.50000000  0.00000000  0.32977500
   0.50000000  0.00000000  0.27022500
   0.00000000  0.50000000  0.32977500
   0.00000000  0.50000000  0.27022500
   0.00000000  0.00000000  0.55000000
   0.00000000  0.50000000  0.42977500
   0.00000000  0.50000000  0.57022500
   0.50000000  0.00000000  0.42977500
   0.50000000  0.00000000  0.57022500
   0.50000000  0.50000000  0.45000000
   0.50000000  0.00000000  0.52977500
   0.50000000  0.00000000  0.47022500
   0.00000000  0.50000000  0.52977500
   0.00000000  0.50000000  0.47022500
   0.00000000  0.00000000  0.75000000
   0.00000000  0.50000000  0.62977500
   0.00000000  0.50000000  0.77022500
   0.50000000  0.00000000  0.62977500
   0.50000000  0.00000000  0.77022500
   0.50000000  0.50000000  0.65000000
   0.50000000  0.00000000  0.72977500
   0.50000000  0.00000000  0.67022500
   0.00000000  0.50000000  0.72977500
   0.00000000  0.50000000  0.67022500
 
 position of ions in cartesian coordinates  (Angst):
   1.88501150  1.88501150 43.52785700
   0.00000000  0.00000000 24.58268320
   0.00000000  0.00000000 32.17610030
   1.88501150  1.88501150 35.93443990
   1.88501150  1.88501150 66.23137040
   0.00000000  0.00000000 47.28619660
   0.00000000  0.00000000 54.87961370
   1.88501150  1.88501150 58.63795330
   1.88501150  1.88501150 88.93488380
   0.00000000  0.00000000 69.98971000
   0.00000000  0.00000000 77.58312710
   1.88501150  1.88501150 81.34146670
   1.88501150  1.88501150 26.56049977
   0.00000000  0.00000000 41.55004043
   0.00000000  0.00000000 37.91225647
   1.88501150  1.88501150 30.19828373
   1.88501150  1.88501150 49.26401317
   0.00000000  0.00000000 64.25355383
   0.00000000  0.00000000 60.61576987
   1.88501150  1.88501150 52.90179713
   1.88501150  1.88501150 71.96752657
   0.00000000  0.00000000 86.95706723
   0.00000000  0.00000000 83.31928327
   1.88501150  1.88501150 75.60531053
   1.88501150  1.88501150 23.70723573
   0.00000000  0.00000000 44.40330447
   0.00000000  0.00000000 35.05899243
   1.88501150  1.88501150 33.05154777
   1.88501150  1.88501150 46.41074913
   0.00000000  0.00000000 67.10681787
   0.00000000  0.00000000 57.76250583
   1.88501150  1.88501150 55.75506117
   1.88501150  1.88501150 69.11426253
   0.00000000  0.00000000 89.81033127
   0.00000000  0.00000000 80.46601923
   1.88501150  1.88501150 78.45857457
   0.00000000  0.00000000 39.73114845
   0.00000000  1.88501150 26.08349896
   0.00000000  1.88501150 42.02704124
   1.88501150  0.00000000 26.08349896
   1.88501150  0.00000000 42.02704124
   1.88501150  1.88501150 28.37939175
   1.88501150  0.00000000 37.43525566
   1.88501150  0.00000000 30.67528454
   0.00000000  1.88501150 37.43525566
   0.00000000  1.88501150 30.67528454
   0.00000000  0.00000000 62.43466185
   0.00000000  1.88501150 48.78701236
   0.00000000  1.88501150 64.73055464
   1.88501150  0.00000000 48.78701236
   1.88501150  0.00000000 64.73055464
   1.88501150  1.88501150 51.08290515
   1.88501150  0.00000000 60.13876906
   1.88501150  0.00000000 53.37879794
   0.00000000  1.88501150 60.13876906
   0.00000000  1.88501150 53.37879794
   0.00000000  0.00000000 85.13817525
   0.00000000  1.88501150 71.49052576
   0.00000000  1.88501150 87.43406804
   1.88501150  0.00000000 71.49052576
   1.88501150  0.00000000 87.43406804
   1.88501150  1.88501150 73.78641855
   1.88501150  0.00000000 82.84228246
   1.88501150  0.00000000 76.08231134
   0.00000000  1.88501150 82.84228246
   0.00000000  1.88501150 76.08231134
 


--------------------------------------------------------------------------------------------------------


 k-point  1 :   0.0000 0.0000 0.0000  plane waves:   42979
 k-point  2 :   0.1667 0.0000 0.0000  plane waves:   43198
 k-point  3 :   0.3333 0.0000 0.0000  plane waves:   43326
 k-point  4 :   0.5000 0.0000 0.0000  plane waves:   43502
 k-point  5 :   0.1667 0.1667 0.0000  plane waves:   43358
 k-point  6 :   0.3333 0.1667 0.0000  plane waves:   43454
 k-point  7 :   0.5000 0.1667 0.0000  plane waves:   43604
 k-point  8 :   0.3333 0.3333 0.0000  plane waves:   43582
 k-point  9 :   0.5000 0.3333 0.0000  plane waves:   43568
 k-point 10 :   0.5000 0.5000 0.0000  plane waves:   43556

 maximum and minimum number of plane-waves per node :      5476     5336

 maximum number of plane-waves:     43604
 maximum index in each direction: 
   IXMAX=    7   IYMAX=    7   IZMAX=  211
   IXMIN=   -7   IYMIN=   -7   IZMIN= -211


 real space projection operators:
  total allocation   :      35388.88 KBytes
  max/ min on nodes  :       5007.25       3817.97


 parallel 3D FFT for wavefunctions:
    minimum data exchange during FFTs selected (reduces bandwidth)
 parallel 3D FFT for charge:
    minimum data exchange during FFTs selected (reduces bandwidth)


 total amount of memory used by VASP MPI-rank0    77659. kBytes
=======================================================================

   base      :      30000. kBytes
   nonlr-proj:      15515. kBytes
   fftplans  :       5753. kBytes
   grid      :      10846. kBytes
   one-center:        270. kBytes
   wavefun   :      15275. kBytes
 
     INWAV:  cpu time    0.0000: real time    0.0000
 Broyden mixing: mesh for mixing (old mesh)
   NGX = 15   NGY = 15   NGZ =423
  (NGX  = 56   NGY  = 56   NGZ  =***)
  gives a total of  95175 points

 initial charge density was supplied:
 charge density of overlapping atoms calculated
 number of electron     432.0000000 magnetization 
 keeping initial charge density in first step


--------------------------------------------------------------------------------------------------------


 Maximum index for non-local projection operator         1248
 Maximum index for augmentation-charges         1163 (set IRDMAX)


--------------------------------------------------------------------------------------------------------


 First call to EWALD:  gamma=   0.151
 Maximum number of real-space cells 8x 8x 1
 Maximum number of reciprocal cells 1x 1x22

    FEWALD:  cpu time    0.0105: real time    0.0105


--------------------------------------- Iteration      1(   1)  ---------------------------------------


    POTLOK:  cpu time    0.1358: real time    0.1383
    SETDIJ:  cpu time    0.4078: real time    0.4296
     EDDAV:  cpu time   16.5881: real time   16.8188
       DOS:  cpu time    0.0100: real time    0.0120
    --------------------------------------------
      LOOP:  cpu time   17.1417: real time   17.3987

 eigenvalue-minimisations  :  5616
 total energy-change (2. order) : 0.4718995E+04  (-0.1894201E+05)
 number of electron     432.0000000 magnetization 
 augmentation part      432.0000000 magnetization 

 Free energy of the ion-electron system (eV)
  ---------------------------------------------------
  alpha Z        PSCENC =      1210.31078187
  Ewald energy   TEWEN  =   1779285.01296922
  -Hartree energ DENC   =  -1807036.95575511
  -exchange      EXHF   =         0.00000000
  -V(xc)+E(xc)   XCENC  =      1068.33450223
  PAW double counting   =     24113.25477224   -23468.81460646
  entropy T*S    EENTRO =        -0.00662005
  eigenvalues    EBANDS =      -372.68220074
  atomic energy  EATOM  =     29920.54117810
  Solvation  Ediel_sol  =         0.00000000
  ---------------------------------------------------
  free energy    TOTEN  =      4718.99502130 eV

  energy without entropy =     4719.00164135  energy(sigma->0) =     4718.99833133


--------------------------------------------------------------------------------------------------------




--------------------------------------- Iteration      1(   2)  ---------------------------------------


     EDDAV:  cpu time   15.3704: real time   16.3586
       DOS:  cpu time    0.0019: real time    0.0023
    --------------------------------------------
      LOOP:  cpu time   15.3723: real time   16.3609

 eigenvalue-minimisations  :  6080
 total energy-change (2. order) :-0.4343360E+04  (-0.4074740E+04)
 number of electron     432.0000000 magnetization 
 augmentation part      432.0000000 magnetization 

 Free energy of the ion-electron system (eV)
  ---------------------------------------------------
  alpha Z        PSCENC =      1210.31078187
  Ewald energy   TEWEN  =   1779285.01296922
  -Hartree energ DENC   =  -1807036.95575511
  -exchange      EXHF   =         0.00000000
  -V(xc)+E(xc)   XCENC  =      1068.33450223
  PAW double counting   =     24113.25477224   -23468.81460646
  entropy T*S    EENTRO =        -0.00327830
  eigenvalues    EBANDS =     -4716.04520257
  atomic energy  EATOM  =     29920.54117810
  Solvation  Ediel_sol  =         0.00000000
  ---------------------------------------------------
  free energy    TOTEN  =       375.63536121 eV

  energy without entropy =      375.63863951  energy(sigma->0) =      375.63700036


--------------------------------------------------------------------------------------------------------




--------------------------------------- Iteration      1(   3)  ---------------------------------------


     EDDAV:  cpu time   20.1911: real time   20.3441
       DOS:  cpu time    0.0014: real time    0.0020
    --------------------------------------------
      LOOP:  cpu time   20.1925: real time   20.3461

 eigenvalue-minimisations  :  7360
 total energy-change (2. order) :-0.1015627E+04  (-0.9955198E+03)
 number of electron     432.0000000 magnetization 
 augmentation part      432.0000000 magnetization 

 Free energy of the ion-electron system (eV)
  ---------------------------------------------------
  alpha Z        PSCENC =      1210.31078187
  Ewald energy   TEWEN  =   1779285.01296922
  -Hartree energ DENC   =  -1807036.95575511
  -exchange      EXHF   =         0.00000000
  -V(xc)+E(xc)   XCENC  =      1068.33450223
  PAW double counting   =     24113.25477224   -23468.81460646
  entropy T*S    EENTRO =        -0.00000000
  eigenvalues    EBANDS =     -5731.67520929
  atomic energy  EATOM  =     29920.54117810
  Solvation  Ediel_sol  =         0.00000000
  ---------------------------------------------------
  free energy    TOTEN  =      -639.99136720 eV

  energy without entropy =     -639.99136720  energy(sigma->0) =     -639.99136720


--------------------------------------------------------------------------------------------------------




--------------------------------------- Iteration      1(   4)  ---------------------------------------


     EDDAV:  cpu time   18.5392: real time   19.0056
       DOS:  cpu time    0.0023: real time    0.0035
    --------------------------------------------
      LOOP:  cpu time   18.5415: real time   19.0091

 eigenvalue-minimisations  :  7024
 total energy-change (2. order) :-0.6265500E+02  (-0.6236824E+02)
 number of electron     432.0000000 magnetization 
 augmentation part      432.0000000 magnetization 

 Free energy of the ion-electron system (eV)
  ---------------------------------------------------
  alpha Z        PSCENC =      1210.31078187
  Ewald energy   TEWEN  =   1779285.01296922
  -Hartree energ DENC   =  -1807036.95575511
  -exchange      EXHF   =         0.00000000
  -V(xc)+E(xc)   XCENC  =      1068.33450223
  PAW double counting   =     24113.25477224   -23468.81460646
  entropy T*S    EENTRO =        -0.00000000
  eigenvalues    EBANDS =     -5794.33020623
  atomic energy  EATOM  =     29920.54117810
  Solvation  Ediel_sol  =         0.00000000
  ---------------------------------------------------
  free energy    TOTEN  =      -702.64636415 eV

  energy without entropy =     -702.64636415  energy(sigma->0) =     -702.64636415


--------------------------------------------------------------------------------------------------------




--------------------------------------- Iteration      1(   5)  ---------------------------------------


     EDDAV:  cpu time   20.3269: real time   22.3166
       DOS:  cpu time    0.0027: real time    0.0038
    CHARGE:  cpu time    0.4660: real time    0.5761
    MIXING:  cpu time    0.0163: real time    0.0195
    --------------------------------------------
      LOOP:  cpu time   20.8120: real time   22.9160

 eigenvalue-minimisations  : 10032
 total energy-change (2. order) :-0.6042998E+01  (-0.6038274E+01)
 number of electron     431.9999743 magnetization 
 augmentation part       45.0003409 magnetization 

 Broyden mixing:
  rms(total) = 0.14937E+02    rms(broyden)= 0.14937E+02
  rms(prec ) = 0.14946E+02
  weight for this iteration     100.00

 Free energy of the ion-electron system (eV)
  ---------------------------------------------------
  alpha Z        PSCENC =      1210.31078187
  Ewald energy   TEWEN  =   1779285.01296922
  -Hartree energ DENC   =  -1807036.95575511
  -exchange      EXHF   =         0.00000000
  -V(xc)+E(xc)   XCENC  =      1068.33450223
  PAW double counting   =     24113.25477224   -23468.81460646
  entropy T*S    EENTRO =        -0.00000000
  eigenvalues    EBANDS =     -5800.37320444
  atomic energy  EATOM  =     29920.54117810
  Solvation  Ediel_sol  =         0.00000000
  ---------------------------------------------------
  free energy    TOTEN  =      -708.68936236 eV

  energy without entropy =     -708.68936236  energy(sigma->0) =     -708.68936236


--------------------------------------------------------------------------------------------------------




--------------------------------------- Iteration      1(   6)  ---------------------------------------


    POTLOK:  cpu time    0.1541: real time    0.1949
    SETDIJ:  cpu time    0.3997: real time    0.3997
     EDDAV:  cpu time   20.7210: real time   20.7266
       DOS:  cpu time    0.0014: real time    0.0018
    CHARGE:  cpu time    0.4919: real time    0.4921
    MIXING:  cpu time    0.0166: real time    0.0166
    --------------------------------------------
      LOOP:  cpu time   21.7847: real time   21.8317

 eigenvalue-minimisations  :  7728
 total energy-change (2. order) : 0.1248511E+03  (-0.7162101E+02)
 number of electron     431.9999816 magnetization 
 augmentation part       49.9354698 magnetization 

 Broyden mixing:
  rms(total) = 0.91369E+01    rms(broyden)= 0.91364E+01
  rms(prec ) = 0.91384E+01
  weight for this iteration     100.00

 eigenvalues of (default mixing * dielectric matrix)
  average eigenvalue GAMMA=   1.1040
  1.1040

 Free energy of the ion-electron system (eV)
  ---------------------------------------------------
  alpha Z        PSCENC =      1210.31078187
  Ewald energy   TEWEN  =   1779285.01296922
  -Hartree energ DENC   =  -1807637.12639713
  -exchange      EXHF   =         0.00000000
  -V(xc)+E(xc)   XCENC  =      1119.75874087
  PAW double counting   =     32959.74339408   -32348.40225083
  entropy T*S    EENTRO =        -0.00000000
  eigenvalues    EBANDS =     -5093.67663975
  atomic energy  EATOM  =     29920.54117810
  Solvation  Ediel_sol  =         0.00000000
  ---------------------------------------------------
  free energy    TOTEN  =      -583.83822359 eV

  energy without entropy =     -583.83822359  energy(sigma->0) =     -583.83822359


--------------------------------------------------------------------------------------------------------




--------------------------------------- Iteration      1(   7)  ---------------------------------------


    POTLOK:  cpu time    0.1474: real time    0.1518
    SETDIJ:  cpu time    0.4028: real time    0.4028
     EDDAV:  cpu time   20.3426: real time   21.0204
       DOS:  cpu time    0.0013: real time    0.0017
    CHARGE:  cpu time    0.4662: real time    0.4661
    MIXING:  cpu time    0.0059: real time    0.0059
    --------------------------------------------
      LOOP:  cpu time   21.3661: real time   22.0487

 eigenvalue-minimisations  :  7648
 total energy-change (2. order) :-0.7149237E+01  (-0.2245353E+02)
 number of electron     431.9999789 magnetization 
 augmentation part       43.8516332 magnetization 

 Broyden mixing:
  rms(total) = 0.68832E+01    rms(broyden)= 0.68831E+01
  rms(prec ) = 0.68848E+01
  weight for this iteration     100.00

 eigenvalues of (default mixing * dielectric matrix)
  average eigenvalue GAMMA=   1.9541
  0.7187  3.1895

 Free energy of the ion-electron system (eV)
  ---------------------------------------------------
  alpha Z        PSCENC =      1210.31078187
  Ewald energy   TEWEN  =   1779285.01296922
  -Hartree energ DENC   =  -1807456.55364586
  -exchange      EXHF   =         0.00000000
  -V(xc)+E(xc)   XCENC  =      1100.41085740
  PAW double counting   =     39672.49809079   -39080.32164914
  entropy T*S    EENTRO =        -0.00000000
  eigenvalues    EBANDS =     -5242.88604311
  atomic energy  EATOM  =     29920.54117810
  Solvation  Ediel_sol  =         0.00000000
  ---------------------------------------------------
  free energy    TOTEN  =      -590.98746073 eV

  energy without entropy =     -590.98746073  energy(sigma->0) =     -590.98746073


--------------------------------------------------------------------------------------------------------




--------------------------------------- Iteration      1(   8)  ---------------------------------------


    POTLOK:  cpu time    0.1233: real time    0.1270
    SETDIJ:  cpu time    0.4458: real time    0.4460
     EDDAV:  cpu time   18.0077: real time   18.7690
       DOS:  cpu time    0.0045: real time    0.0051
    CHARGE:  cpu time    0.5448: real time    0.5448
    MIXING:  cpu time    0.0046: real time    0.0046
    --------------------------------------------
      LOOP:  cpu time   19.1307: real time   19.8964

 eigenvalue-minimisations  :  7744
 total energy-change (2. order) : 0.4770271E+01  (-0.7913856E+01)
 number of electron     431.9999804 magnetization 
 augmentation part       49.7236931 magnetization 

 Broyden mixing:
  rms(total) = 0.33469E+01    rms(broyden)= 0.33468E+01
  rms(prec ) = 0.33502E+01
  weight for this iteration     100.00

 eigenvalues of (default mixing * dielectric matrix)
  average eigenvalue GAMMA=   1.3682
  2.3577  1.1314  0.6154

 Free energy of the ion-electron system (eV)
  ---------------------------------------------------
  alpha Z        PSCENC =      1210.31078187
  Ewald energy   TEWEN  =   1779285.01296922
  -Hartree energ DENC   =  -1807552.19192903
  -exchange      EXHF   =         0.00000000
  -V(xc)+E(xc)   XCENC  =      1109.50303571
  PAW double counting   =     55604.02167028   -55018.42995370
  entropy T*S    EENTRO =        -0.00134982
  eigenvalues    EBANDS =     -5144.98359238
  atomic energy  EATOM  =     29920.54117810
  Solvation  Ediel_sol  =         0.00000000
  ---------------------------------------------------
  free energy    TOTEN  =      -586.21718975 eV

  energy without entropy =     -586.21583993  energy(sigma->0) =     -586.21651484


--------------------------------------------------------------------------------------------------------




--------------------------------------- Iteration      1(   9)  ---------------------------------------


    POTLOK:  cpu time    0.1047: real time    0.1095
    SETDIJ:  cpu time    0.4367: real time    0.4370
     EDDAV:  cpu time   19.2704: real time   19.5938
       DOS:  cpu time    0.0014: real time    0.0019
    CHARGE:  cpu time    0.6650: real time    0.6650
    MIXING:  cpu time    0.0126: real time    0.0126
    --------------------------------------------
      LOOP:  cpu time   20.4908: real time   20.8198

 eigenvalue-minimisations  :  7488
 total energy-change (2. order) : 0.3835692E+01  (-0.3350918E+01)
 number of electron     431.9999794 magnetization 
 augmentation part       45.1847892 magnetization 

 Broyden mixing:
  rms(total) = 0.66236E+00    rms(broyden)= 0.66229E+00
  rms(prec ) = 0.66334E+00
  weight for this iteration     100.00

 eigenvalues of (default mixing * dielectric matrix)
  average eigenvalue GAMMA=   1.3560
  2.5728  1.1722  1.0878  0.5910

 Free energy of the ion-electron system (eV)
  ---------------------------------------------------
  alpha Z        PSCENC =      1210.31078187
  Ewald energy   TEWEN  =   1779285.01296922
  -Hartree energ DENC   =  -1807514.75648283
  -exchange      EXHF   =         0.00000000
  -V(xc)+E(xc)   XCENC  =      1105.40152755
  PAW double counting   =     50214.98482026   -49622.88602657
  entropy T*S    EENTRO =        -0.00000000
  eigenvalues    EBANDS =     -5180.99026569
  atomic energy  EATOM  =     29920.54117810
  Solvation  Ediel_sol  =         0.00000000
  ---------------------------------------------------
  free energy    TOTEN  =      -582.38149811 eV

  energy without entropy =     -582.38149811  energy(sigma->0) =     -582.38149811


--------------------------------------------------------------------------------------------------------




--------------------------------------- Iteration      1(  10)  ---------------------------------------


    POTLOK:  cpu time    0.1743: real time    0.1757
    SETDIJ:  cpu time    0.3840: real time    0.4451
     EDDAV:  cpu time   18.3291: real time   19.1427
       DOS:  cpu time    0.0016: real time    0.0045
    CHARGE:  cpu time    0.3896: real time    0.4360
    MIXING:  cpu time    0.0044: real time    0.0044
    --------------------------------------------
      LOOP:  cpu time   19.2831: real time   20.2084

 eigenvalue-minimisations  :  7824
 total energy-change (2. order) : 0.2263079E+00  (-0.3632760E+00)
 number of electron     431.9999797 magnetization 
 augmentation part       45.7879122 magnetization 

 Broyden mixing:
  rms(total) = 0.42393E+00    rms(broyden)= 0.42392E+00
  rms(prec ) = 0.42415E+00
  weight for this iteration     100.00

 eigenvalues of (default mixing * dielectric matrix)
  average eigenvalue GAMMA=   1.2478
  1.9584  1.9584  0.8714  0.8714  0.5790

 Free energy of the ion-electron system (eV)
  ---------------------------------------------------
  alpha Z        PSCENC =      1210.31078187
  Ewald energy   TEWEN  =   1779285.01296922
  -Hartree energ DENC   =  -1807585.45361555
  -exchange      EXHF   =         0.00000000
  -V(xc)+E(xc)   XCENC  =      1108.51630023
  PAW double counting   =     50835.67629130   -50236.21354781
  entropy T*S    EENTRO =        -0.00000000
  eigenvalues    EBANDS =     -5120.54554753
  atomic energy  EATOM  =     29920.54117810
  Solvation  Ediel_sol  =         0.00000000
  ---------------------------------------------------
  free energy    TOTEN  =      -582.15519018 eV

  energy without entropy =     -582.15519018  energy(sigma->0) =     -582.15519018


--------------------------------------------------------------------------------------------------------




--------------------------------------- Iteration      1(  11)  ---------------------------------------


    POTLOK:  cpu time    0.1112: real time    0.1299
    SETDIJ:  cpu time    0.3920: real time    0.4264
     EDDAV:  cpu time   18.9817: real time   19.4828
       DOS:  cpu time    0.0016: real time    0.0019
    CHARGE:  cpu time    0.4236: real time    0.4238
    MIXING:  cpu time    0.0043: real time    0.0043
    --------------------------------------------
      LOOP:  cpu time   19.9144: real time   20.4693

 eigenvalue-minimisations  :  7488
 total energy-change (2. order) : 0.1827705E-01  (-0.4665591E-01)
 number of electron     431.9999797 magnetization 
 augmentation part       45.5732384 magnetization 

 Broyden mixing:
  rms(total) = 0.12270E+00    rms(broyden)= 0.12269E+00
  rms(prec ) = 0.12296E+00
  weight for this iteration     100.00

 eigenvalues of (default mixing * dielectric matrix)
  average eigenvalue GAMMA=   1.2857
  2.2434  1.7774  1.1368  1.1368  0.8414  0.5781

 Free energy of the ion-electron system (eV)
  ---------------------------------------------------
  alpha Z        PSCENC =      1210.31078187
  Ewald energy   TEWEN  =   1779285.01296922
  -Hartree energ DENC   =  -1807607.32388005
  -exchange      EXHF   =         0.00000000
  -V(xc)+E(xc)   XCENC  =      1108.40187449
  PAW double counting   =     50130.62615281   -49527.76793583
  entropy T*S    EENTRO =        -0.00000000
  eigenvalues    EBANDS =     -5101.93805373
  atomic energy  EATOM  =     29920.54117810
  Solvation  Ediel_sol  =         0.00000000
  ---------------------------------------------------
  free energy    TOTEN  =      -582.13691313 eV

  energy without entropy =     -582.13691313  energy(sigma->0) =     -582.13691313


--------------------------------------------------------------------------------------------------------




--------------------------------------- Iteration      1(  12)  ---------------------------------------


    POTLOK:  cpu time    0.1266: real time    0.1305
    SETDIJ:  cpu time    0.4397: real time    0.4397
     EDDAV:  cpu time   20.5084: real time   21.6223
       DOS:  cpu time    0.0015: real time    0.0021
    CHARGE:  cpu time    0.5859: real time    0.5861
    MIXING:  cpu time    0.0036: real time    0.0036
    --------------------------------------------
      LOOP:  cpu time   21.6658: real time   22.7842

 eigenvalue-minimisations  :  7312
 total energy-change (2. order) : 0.3308000E-02  (-0.1325268E-01)
 number of electron     431.9999796 magnetization 
 augmentation part       45.6543473 magnetization 

 Broyden mixing:
  rms(total) = 0.62379E-01    rms(broyden)= 0.62369E-01
  rms(prec ) = 0.62557E-01
  weight for this iteration     100.00

 eigenvalues of (default mixing * dielectric matrix)
  average eigenvalue GAMMA=   1.3115
  2.2182  2.2182  1.5382  0.9174  0.9174  0.5768  0.7942

 Free energy of the ion-electron system (eV)
  ---------------------------------------------------
  alpha Z        PSCENC =      1210.31078187
  Ewald energy   TEWEN  =   1779285.01296922
  -Hartree energ DENC   =  -1807635.72537812
  -exchange      EXHF   =         0.00000000
  -V(xc)+E(xc)   XCENC  =      1108.41436052
  PAW double counting   =     50303.80985059   -49697.43735268
  entropy T*S    EENTRO =        -0.00000000
  eigenvalues    EBANDS =     -5077.06001463
  atomic energy  EATOM  =     29920.54117810
  Solvation  Ediel_sol  =         0.00000000
  ---------------------------------------------------
  free energy    TOTEN  =      -582.13360513 eV

  energy without entropy =     -582.13360513  energy(sigma->0) =     -582.13360513


--------------------------------------------------------------------------------------------------------




--------------------------------------- Iteration      1(  13)  ---------------------------------------


    POTLOK:  cpu time    0.1419: real time    0.1462
    SETDIJ:  cpu time    0.4098: real time    0.4098
     EDDAV:  cpu time   17.6343: real time   18.4787
       DOS:  cpu time    0.0033: real time    0.0038
    CHARGE:  cpu time    0.5961: real time    0.7652
    MIXING:  cpu time    0.0784: real time    0.0784
    --------------------------------------------
      LOOP:  cpu time   18.8638: real time   19.8821

 eigenvalue-minimisations  :  7856
 total energy-change (2. order) : 0.7588090E-03  (-0.2920444E-02)
 number of electron     431.9999796 magnetization 
 augmentation part       45.7196795 magnetization 

 Broyden mixing:
  rms(total) = 0.38612E-01    rms(broyden)= 0.38609E-01
  rms(prec ) = 0.38792E-01
  weight for this iteration     100.00

 eigenvalues of (default mixing * dielectric matrix)
  average eigenvalue GAMMA=   1.2608
  2.3136  2.3136  1.4393  0.9197  0.9197  0.5813  0.7996  0.7996

 Free energy of the ion-electron system (eV)
  ---------------------------------------------------
  alpha Z        PSCENC =      1210.31078187
  Ewald energy   TEWEN  =   1779285.01296922
  -Hartree energ DENC   =  -1807663.04764126
  -exchange      EXHF   =         0.00000000
  -V(xc)+E(xc)   XCENC  =      1108.76796251
  PAW double counting   =     50307.43049692   -49699.25077922
  entropy T*S    EENTRO =        -0.00000000
  eigenvalues    EBANDS =     -5051.89781446
  atomic energy  EATOM  =     29920.54117810
  Solvation  Ediel_sol  =         0.00000000
  ---------------------------------------------------
  free energy    TOTEN  =      -582.13284632 eV

  energy without entropy =     -582.13284632  energy(sigma->0) =     -582.13284632


--------------------------------------------------------------------------------------------------------




--------------------------------------- Iteration      1(  14)  ---------------------------------------


    POTLOK:  cpu time    0.3068: real time    0.3099
    SETDIJ:  cpu time    0.4856: real time    0.4858
     EDDAV:  cpu time   19.2170: real time   19.7457
       DOS:  cpu time    0.0012: real time    0.0016
    CHARGE:  cpu time    0.4465: real time    0.4465
    MIXING:  cpu time    0.0085: real time    0.0085
    --------------------------------------------
      LOOP:  cpu time   20.4658: real time   20.9980

 eigenvalue-minimisations  :  7616
 total energy-change (2. order) : 0.8499272E-03  (-0.7730592E-03)
 number of electron     431.9999796 magnetization 
 augmentation part       45.7020006 magnetization 

 Broyden mixing:
  rms(total) = 0.19214E-01    rms(broyden)= 0.19214E-01
  rms(prec ) = 0.19426E-01
  weight for this iteration     100.00

 eigenvalues of (default mixing * dielectric matrix)
  average eigenvalue GAMMA=   1.2633
  2.3598  1.9833  1.9833  0.9816  0.9816  1.0006  0.8400  0.5798  0.6601

 Free energy of the ion-electron system (eV)
  ---------------------------------------------------
  alpha Z        PSCENC =      1210.31078187
  Ewald energy   TEWEN  =   1779285.01296922
  -Hartree energ DENC   =  -1807673.14658081
  -exchange      EXHF   =         0.00000000
  -V(xc)+E(xc)   XCENC  =      1108.75970527
  PAW double counting   =     50326.76071485   -49718.26614587
  entropy T*S    EENTRO =        -0.00000000
  eigenvalues    EBANDS =     -5042.10461903
  atomic energy  EATOM  =     29920.54117810
  Solvation  Ediel_sol  =         0.00000000
  ---------------------------------------------------
  free energy    TOTEN  =      -582.13199640 eV

  energy without entropy =     -582.13199640  energy(sigma->0) =     -582.13199640


--------------------------------------------------------------------------------------------------------




--------------------------------------- Iteration      1(  15)  ---------------------------------------


    POTLOK:  cpu time    0.1782: real time    0.1815
    SETDIJ:  cpu time    0.3766: real time    0.3768
     EDDAV:  cpu time   18.8902: real time   19.3516
       DOS:  cpu time    0.0013: real time    0.0018
    CHARGE:  cpu time    0.3949: real time    0.3950
    MIXING:  cpu time    0.0044: real time    0.0044
    --------------------------------------------
      LOOP:  cpu time   19.8456: real time   20.3111

 eigenvalue-minimisations  :  7376
 total energy-change (2. order) : 0.2375603E-03  (-0.2437397E-03)
 number of electron     431.9999796 magnetization 
 augmentation part       45.6857083 magnetization 

 Broyden mixing:
  rms(total) = 0.14510E-01    rms(broyden)= 0.14509E-01
  rms(prec ) = 0.14713E-01
  weight for this iteration     100.00

 eigenvalues of (default mixing * dielectric matrix)
  average eigenvalue GAMMA=   1.2524
  2.3401  2.1456  2.1456  1.0934  1.0934  0.8606  0.8606  0.8116  0.5794  0.5932

 Free energy of the ion-electron system (eV)
  ---------------------------------------------------
  alpha Z        PSCENC =      1210.31078187
  Ewald energy   TEWEN  =   1779285.01296922
  -Hartree energ DENC   =  -1807682.49755981
  -exchange      EXHF   =         0.00000000
  -V(xc)+E(xc)   XCENC  =      1108.71298794
  PAW double counting   =     50353.33791220   -49744.97463480
  entropy T*S    EENTRO =        -0.00000000
  eigenvalues    EBANDS =     -5032.57539355
  atomic energy  EATOM  =     29920.54117810
  Solvation  Ediel_sol  =         0.00000000
  ---------------------------------------------------
  free energy    TOTEN  =      -582.13175884 eV

  energy without entropy =     -582.13175884  energy(sigma->0) =     -582.13175884


--------------------------------------------------------------------------------------------------------




--------------------------------------- Iteration      1(  16)  ---------------------------------------


    POTLOK:  cpu time    0.1704: real time    0.1745
    SETDIJ:  cpu time    0.3527: real time    0.3527
     EDDAV:  cpu time   15.6315: real time   16.2328
       DOS:  cpu time    0.0012: real time    0.0016
    CHARGE:  cpu time    0.5393: real time    0.5395
    MIXING:  cpu time    0.0096: real time    0.0096
    --------------------------------------------
      LOOP:  cpu time   16.7048: real time   17.3106

 eigenvalue-minimisations  :  7696
 total energy-change (2. order) : 0.1994399E-03  (-0.8011722E-04)
 number of electron     431.9999796 magnetization 
 augmentation part       45.6928637 magnetization 

 Broyden mixing:
  rms(total) = 0.64192E-02    rms(broyden)= 0.64188E-02
  rms(prec ) = 0.67716E-02
  weight for this iteration     100.00

 eigenvalues of (default mixing * dielectric matrix)
  average eigenvalue GAMMA=   1.3048
  2.6817  2.2821  1.7510  1.7510  1.0821  1.0821  0.8878  0.8331  0.8331  0.5757
  0.5933

 Free energy of the ion-electron system (eV)
  ---------------------------------------------------
  alpha Z        PSCENC =      1210.31078187
  Ewald energy   TEWEN  =   1779285.01296922
  -Hartree energ DENC   =  -1807690.35099774
  -exchange      EXHF   =         0.00000000
  -V(xc)+E(xc)   XCENC  =      1108.75313033
  PAW double counting   =     50350.57056647   -49742.20814602
  entropy T*S    EENTRO =        -0.00000000
  eigenvalues    EBANDS =     -5024.76104163
  atomic energy  EATOM  =     29920.54117810
  Solvation  Ediel_sol  =         0.00000000
  ---------------------------------------------------
  free energy    TOTEN  =      -582.13155940 eV

  energy without entropy =     -582.13155940  energy(sigma->0) =     -582.13155940


--------------------------------------------------------------------------------------------------------




--------------------------------------- Iteration      1(  17)  ---------------------------------------


    POTLOK:  cpu time    0.1380: real time    0.1423
    SETDIJ:  cpu time    0.4108: real time    0.4110
     EDDAV:  cpu time   15.7694: real time   15.9164
       DOS:  cpu time    0.0055: real time    0.0060
    CHARGE:  cpu time    0.4977: real time    0.4979
    MIXING:  cpu time    0.0065: real time    0.0065
    --------------------------------------------
      LOOP:  cpu time   16.8280: real time   16.9802

 eigenvalue-minimisations  :  6768
 total energy-change (2. order) : 0.2354669E-03  (-0.4549762E-04)
 number of electron     431.9999796 magnetization 
 augmentation part       45.6952367 magnetization 

 Broyden mixing:
  rms(total) = 0.44953E-02    rms(broyden)= 0.44952E-02
  rms(prec ) = 0.48301E-02
  weight for this iteration     100.00

[...]
   0.112E-12 -.573E-12 0.457E+04   0.171E-13 0.168E-14 -.457E+04   0.000E+00 -.103E-24 0.432E+00   -.935E-14 -.170E-13 -.478E-04
   0.564E-14 0.167E-11 0.116E+05   0.102E-13 0.570E-14 -.116E+05   -.517E-25 0.000E+00 -.253E+01   0.201E-13 0.262E-13 0.968E-04
   0.609E-15 0.351E-12 0.860E+04   0.305E-14 0.351E-15 -.860E+04   -.775E-25 0.207E-24 0.428E+00   0.728E-14 -.356E-13 -.113E-03
   0.957E-13 -.738E-12 0.753E+04   0.897E-14 0.154E-13 -.753E+04   -.103E-24 0.000E+00 -.432E+00   0.312E-13 0.355E-13 -.832E-06
   0.894E-13 0.562E-13 -.350E+04   -.463E-14 0.726E-14 0.350E+04   -.155E-24 0.000E+00 0.432E+00   0.104E-13 -.300E-13 -.401E-04
   -.402E-14 0.401E-12 0.350E+04   -.823E-15 0.164E-13 -.350E+04   0.155E-24 -.517E-25 -.432E+00   -.878E-14 0.189E-13 0.401E-04
   0.113E-14 -.308E-13 0.537E+03   -.228E-14 0.579E-14 -.538E+03   -.258E-25 0.000E+00 0.434E+00   -.386E-14 -.208E-13 -.734E-04
   0.946E-13 0.588E-12 -.537E+03   0.156E-14 0.150E-13 0.538E+03   0.000E+00 0.000E+00 -.434E+00   0.618E-15 0.268E-13 0.734E-04
   0.982E-13 -.132E-11 -.116E+05   0.102E-13 0.570E-14 0.116E+05   0.775E-25 0.000E+00 0.253E+01   -.164E-13 -.439E-13 -.968E-04
   -.128E-14 0.442E-12 -.457E+04   0.207E-13 0.108E-13 0.457E+04   -.258E-25 0.517E-25 -.432E+00   0.106E-13 0.874E-14 0.478E-04
   -.422E-14 0.987E-12 -.753E+04   0.533E-14 0.607E-14 0.753E+04   -.517E-25 0.000E+00 0.432E+00   -.250E-13 -.156E-13 0.832E-06
   0.997E-13 -.247E-12 -.860E+04   0.677E-14 0.956E-14 0.860E+04   0.000E+00 -.207E-24 -.428E+00   -.327E-14 0.485E-13 0.113E-03
   -.931E-16 0.170E-13 0.381E+04   0.205E-14 -.170E-14 -.381E+04   -.614E-25 0.000E+00 0.550E-01   0.188E-14 0.784E-14 0.362E-04
   -.268E-14 -.448E-12 0.206E+04   0.115E-13 0.189E-14 -.206E+04   0.000E+00 0.000E+00 -.272E-01   0.218E-15 -.136E-13 -.884E-05
   -.434E-14 0.167E-12 0.234E+04   0.390E-14 -.772E-14 -.234E+04   0.000E+00 0.000E+00 0.202E-01   0.870E-15 0.494E-14 0.119E-04
   0.518E-14 0.218E-12 0.353E+04   0.258E-14 -.342E-15 -.353E+04   -.323E-25 0.000E+00 -.346E-01   0.345E-14 -.174E-13 -.434E-04
   0.429E-14 0.784E-12 0.873E+03   0.155E-13 0.651E-15 -.873E+03   0.517E-25 0.000E+00 0.388E-01   -.371E-15 0.106E-13 0.829E-05
   0.110E-14 -.834E-12 -.873E+03   0.150E-13 0.725E-15 0.873E+03   0.517E-25 0.000E+00 -.388E-01   -.820E-15 -.106E-13 -.829E-05
   0.328E-15 -.654E-12 -.594E+03   0.109E-13 0.250E-14 0.594E+03   0.258E-25 0.323E-26 0.216E-01   -.196E-14 0.169E-13 0.209E-04
   0.539E-15 0.967E-12 0.594E+03   0.111E-13 0.234E-14 -.594E+03   -.323E-25 0.000E+00 -.216E-01   0.236E-14 -.168E-13 -.209E-04
   0.539E-14 0.349E-12 -.206E+04   0.120E-13 0.182E-14 0.206E+04   0.000E+00 0.000E+00 0.272E-01   -.190E-14 0.138E-13 0.884E-05
   -.582E-14 0.246E-12 -.381E+04   0.205E-14 -.170E-14 0.381E+04   0.517E-25 0.000E+00 -.550E-01   -.971E-15 -.704E-14 -.362E-04
   -.254E-14 -.961E-13 -.353E+04   0.299E-14 -.424E-16 0.353E+04   0.242E-25 0.000E+00 0.346E-01   -.623E-14 0.170E-13 0.434E-04
   0.123E-13 -.716E-13 -.234E+04   0.349E-14 -.803E-14 0.234E+04   0.129E-25 0.000E+00 -.202E-01   0.157E-15 -.334E-14 -.119E-04
   -.410E-14 0.518E-14 0.647E+04   -.154E-13 -.381E-14 -.647E+04   0.194E-24 0.000E+00 0.463E+00   -.128E-14 0.669E-14 0.183E-04
   -.308E-14 0.873E-12 0.232E+04   -.132E-14 0.739E-15 -.232E+04   -.109E-23 0.000E+00 -.442E+00   0.448E-14 0.327E-14 -.179E-04
   -.779E-14 0.168E-11 0.428E+04   0.211E-14 0.532E-14 -.428E+04   0.000E+00 0.207E-24 0.440E+00   -.792E-14 0.829E-15 -.107E-04
   0.116E-13 -.100E-11 0.452E+04   -.232E-13 -.794E-14 -.452E+04   -.310E-24 0.000E+00 -.437E+00   0.248E-14 -.646E-16 -.409E-04
   -.387E-14 -.438E-12 0.208E+04   -.232E-13 -.106E-13 -.208E+04   0.103E-24 0.000E+00 0.438E+00   0.760E-14 -.944E-14 0.608E-05
   -.127E-13 0.426E-12 -.208E+04   -.121E-14 -.175E-14 0.208E+04   -.207E-24 -.258E-25 -.438E+00   -.545E-14 0.124E-13 -.608E-05
   -.114E-13 -.479E-12 -.119E+03   0.710E-14 0.608E-14 0.119E+03   0.000E+00 0.000E+00 0.443E+00   -.440E-14 -.169E-13 0.214E-04
   -.625E-14 0.468E-12 0.119E+03   -.149E-13 -.271E-14 -.119E+03   -.517E-25 0.000E+00 -.443E+00   0.515E-14 0.156E-13 -.214E-04
   -.979E-14 -.766E-12 -.232E+04   -.233E-13 -.804E-14 0.232E+04   0.827E-24 0.000E+00 0.442E+00   -.676E-14 -.594E-14 0.179E-04
   -.163E-14 0.188E-13 -.647E+04   -.154E-13 -.381E-14 0.647E+04   0.000E+00 0.000E+00 -.463E+00   0.131E-14 -.339E-14 -.183E-04
   -.894E-14 0.931E-12 -.452E+04   -.118E-14 0.850E-15 0.452E+04   0.000E+00 0.000E+00 0.437E+00   -.277E-14 -.143E-14 0.409E-04
   -.277E-13 -.118E-11 -.428E+04   -.200E-13 -.349E-14 0.428E+04   0.000E+00 -.207E-24 -.440E+00   0.699E-14 -.634E-14 0.107E-04
   -.298E-14 0.829E-13 0.330E+04   0.495E-14 -.100E-13 -.330E+04   -.517E-25 -.517E-25 -.404E-02   0.118E-14 0.507E-14 0.505E-05
   -.307E-14 0.241E-11 0.578E+04   -.163E-14 -.549E-14 -.578E+04   -.646E-25 0.000E+00 -.159E+01   -.125E-14 -.380E-13 0.747E-04
   -.307E-14 -.400E-12 0.302E+04   0.179E-13 -.918E-14 -.302E+04   0.103E-24 0.000E+00 0.150E+01   0.320E-14 0.696E-13 -.221E-04
   0.168E-12 -.603E-12 0.578E+04   -.164E-13 0.178E-14 -.578E+04   0.207E-24 0.000E+00 -.159E+01   -.571E-14 -.569E-13 0.747E-04
   0.122E-12 0.923E-12 0.302E+04   -.540E-13 0.884E-15 -.302E+04   0.103E-24 0.207E-24 0.150E+01   -.161E-14 0.103E-13 -.221E-04
   0.146E-12 0.115E-11 0.550E+04   0.461E-14 -.625E-14 -.550E+04   -.103E-24 0.258E-25 0.159E+00   -.588E-14 -.150E-13 0.516E-07
   0.134E-12 -.163E-11 0.358E+04   0.422E-14 -.166E-13 -.358E+04   -.258E-25 0.258E-25 -.149E+01   -.361E-14 -.278E-13 0.238E-04
   0.124E-12 0.191E-11 0.522E+04   0.292E-13 -.976E-14 -.522E+04   0.207E-24 0.103E-24 0.149E+01   0.130E-13 0.637E-13 -.762E-04
   0.423E-14 0.603E-12 0.358E+04   -.299E-13 0.784E-14 -.358E+04   0.207E-24 0.000E+00 -.149E+01   -.777E-15 -.565E-13 0.238E-04
   -.611E-14 -.112E-11 0.522E+04   -.518E-13 0.389E-15 -.522E+04   0.517E-25 -.414E-24 0.149E+01   -.184E-14 -.116E-13 -.762E-04
   0.627E-15 -.168E-12 -.110E+04   0.690E-14 -.106E-13 0.110E+04   0.323E-26 0.000E+00 -.328E-02   -.679E-14 0.647E-14 0.152E-04
   0.315E-14 -.498E-12 0.138E+04   -.729E-15 -.129E-13 -.138E+04   -.517E-25 -.103E-24 -.150E+01   0.970E-14 -.954E-14 0.266E-04
   -.392E-14 0.119E-11 -.138E+04   0.199E-13 -.418E-14 0.138E+04   -.517E-25 0.517E-25 0.150E+01   -.168E-13 0.750E-13 -.266E-04
   0.137E-12 -.682E-12 0.138E+04   -.191E-13 -.132E-15 -.138E+04   0.521E-25 -.775E-25 -.150E+01   0.203E-13 -.766E-13 0.266E-04
   0.135E-12 0.158E-12 -.138E+04   -.411E-13 -.578E-14 0.138E+04   0.517E-25 0.103E-24 0.150E+01   -.550E-14 0.149E-13 -.266E-04
   0.135E-12 0.425E-12 0.110E+04   0.634E-14 -.724E-14 -.110E+04   0.000E+00 0.646E-26 0.328E-02   0.933E-14 -.115E-13 -.152E-04
   0.131E-12 0.253E-11 -.822E+03   0.135E-14 -.169E-13 0.823E+03   0.129E-24 0.000E+00 -.149E+01   0.758E-14 -.109E-13 0.381E-04
   0.155E-12 -.149E-11 0.822E+03   0.944E-14 -.103E-13 -.823E+03   0.129E-25 -.129E-25 0.149E+01   0.138E-13 0.866E-13 -.381E-04
   -.514E-15 0.179E-11 -.822E+03   -.299E-13 -.311E-14 0.823E+03   0.000E+00 0.103E-24 -.149E+01   -.119E-13 -.837E-13 0.381E-04
   -.848E-14 -.152E-11 0.822E+03   -.370E-13 -.994E-14 -.823E+03   -.517E-25 0.000E+00 0.149E+01   -.555E-14 0.346E-14 -.381E-04
   0.119E-15 -.120E-11 -.550E+04   0.107E-13 -.769E-14 0.550E+04   0.103E-24 0.000E+00 -.159E+00   0.765E-14 0.117E-13 -.516E-07
   -.197E-13 -.213E-11 -.302E+04   -.814E-14 -.855E-14 0.302E+04   0.000E+00 0.207E-24 -.150E+01   0.176E-14 0.199E-14 0.221E-04
   -.834E-15 0.241E-12 -.578E+04   0.234E-13 -.631E-14 0.578E+04   -.414E-24 0.646E-26 0.159E+01   0.124E-13 0.526E-13 -.747E-04
   0.149E-12 0.302E-12 -.302E+04   -.212E-13 -.101E-14 0.302E+04   -.207E-24 -.517E-25 -.150E+01   -.643E-14 -.729E-13 0.221E-04
   0.136E-12 -.211E-11 -.578E+04   -.475E-13 0.405E-14 0.578E+04   0.103E-24 0.000E+00 0.159E+01   0.600E-14 0.321E-13 -.747E-04
   0.168E-12 0.581E-12 -.330E+04   -.109E-14 -.854E-14 0.330E+04   0.517E-25 0.258E-25 0.404E-02   -.357E-14 -.448E-14 -.505E-05
   0.117E-12 0.139E-11 -.522E+04   -.141E-13 -.686E-14 0.522E+04   0.000E+00 0.103E-24 -.149E+01   0.120E-13 0.475E-14 0.762E-04
   0.172E-12 -.633E-12 -.358E+04   0.972E-14 0.504E-15 0.358E+04   -.155E-24 -.129E-25 0.149E+01   -.461E-15 0.525E-13 -.238E-04
   -.129E-13 -.123E-11 -.522E+04   -.104E-13 -.241E-14 0.522E+04   0.000E+00 -.207E-24 -.149E+01   -.111E-13 -.558E-13 0.762E-04
   -.807E-14 0.196E-11 -.358E+04   -.334E-13 -.938E-14 0.358E+04   0.000E+00 0.000E+00 0.149E+01   -.210E-15 0.215E-13 -.238E-04
 -----------------------------------------------------------------------------------------------
   0.258E-11 0.503E-11 0.190E-09   -.230E-12 -.113E-12 -.159E-10   -.486E-24 -.872E-25 -.222E-15   0.385E-13 -.198E-13 0.634E-11
 
 
 POSITION                                       TOTAL-FORCE (eV/Angst)
 -----------------------------------------------------------------------------------
      1.88501      1.88501     43.52786         0.000000      0.000000     -0.001707
      0.00000      0.00000     24.58268         0.000000     -0.000000      0.559316
      0.00000      0.00000     32.17610         0.000000     -0.000000      0.002687
      1.88501      1.88501     35.93444         0.000000      0.000000      0.000446
      1.88501      1.88501     66.23137         0.000000      0.000000     -0.000918
      0.00000      0.00000     47.28620        -0.000000      0.000000      0.000918
      0.00000      0.00000     54.87961         0.000000      0.000000      0.000346
      1.88501      1.88501     58.63795         0.000000      0.000000     -0.000346
      1.88501      1.88501     88.93488         0.000000     -0.000000     -0.559316
      0.00000      0.00000     69.98971         0.000000      0.000000      0.001707
      0.00000      0.00000     77.58313         0.000000     -0.000000     -0.000446
      1.88501      1.88501     81.34147         0.000000      0.000000     -0.002687
      1.88501      1.88501     26.56050         0.000000      0.000000     -0.212581
      0.00000      0.00000     41.55004         0.000000     -0.000000      0.005149
      0.00000      0.00000     37.91226         0.000000      0.000000     -0.012246
      1.88501      1.88501     30.19828         0.000000     -0.000000      0.002443
      1.88501      1.88501     49.26401         0.000000     -0.000000      0.006247
      0.00000      0.00000     64.25355         0.000000     -0.000000     -0.006247
      0.00000      0.00000     60.61577         0.000000     -0.000000     -0.010676
      1.88501      1.88501     52.90180         0.000000      0.000000      0.010676
      1.88501      1.88501     71.96753         0.000000      0.000000     -0.005149
      0.00000      0.00000     86.95707         0.000000     -0.000000      0.212581
      0.00000      0.00000     83.31928         0.000000      0.000000     -0.002443
      1.88501      1.88501     75.60531         0.000000      0.000000      0.012246
      1.88501      1.88501     23.70724        -0.000000      0.000000     -0.394379
      0.00000      0.00000     44.40330         0.000000     -0.000000     -0.000281
      0.00000      0.00000     35.05899         0.000000     -0.000000     -0.000539
      1.88501      1.88501     33.05155         0.000000     -0.000000      0.004521
      1.88501      1.88501     46.41075        -0.000000      0.000000     -0.003558
      0.00000      0.00000     67.10682         0.000000     -0.000000      0.003558
      0.00000      0.00000     57.76251         0.000000      0.000000      0.001442
      1.88501      1.88501     55.75506         0.000000     -0.000000     -0.001442
      1.88501      1.88501     69.11426         0.000000     -0.000000      0.000281
      0.00000      0.00000     89.81033         0.000000      0.000000      0.394379
      0.00000      0.00000     80.46602         0.000000     -0.000000     -0.004521
      1.88501      1.88501     78.45857         0.000000      0.000000      0.000539
      0.00000      0.00000     39.73115         0.000000     -0.000000     -0.004207
      0.00000      1.88501     26.08350         0.000000      0.000000     -0.010244
      0.00000      1.88501     42.02704         0.000000      0.000000      0.003450
      1.88501      0.00000     26.08350         0.000000      0.000000     -0.010244
      1.88501      0.00000     42.02704         0.000000      0.000000      0.003450
      1.88501      1.88501     28.37939         0.000000     -0.000000      0.053886
      1.88501      0.00000     37.43526         0.000000      0.000000      0.003614
      1.88501      0.00000     30.67528         0.000000     -0.000000     -0.003415
      0.00000      1.88501     37.43526         0.000000     -0.000000      0.003614
      0.00000      1.88501     30.67528         0.000000      0.000000     -0.003415
      0.00000      0.00000     62.43466         0.000000      0.000000     -0.003497
      0.00000      1.88501     48.78701         0.000000      0.000000     -0.007792
      0.00000      1.88501     64.73055         0.000000     -0.000000      0.007792
      1.88501      0.00000     48.78701        -0.000000     -0.000000     -0.007792
      1.88501      0.00000     64.73055         0.000000      0.000000      0.007792
      1.88501      1.88501     51.08291         0.000000     -0.000000      0.003497
      1.88501      0.00000     60.13877         0.000000     -0.000000      0.007341
      1.88501      0.00000     53.37880         0.000000     -0.000000     -0.007341
      0.00000      1.88501     60.13877         0.000000      0.000000      0.007341
      0.00000      1.88501     53.37880         0.000000      0.000000     -0.007341
      0.00000      0.00000     85.13818         0.000000     -0.000000     -0.053886
      0.00000      1.88501     71.49053         0.000000     -0.000000     -0.003450
      0.00000      1.88501     87.43407         0.000000      0.000000      0.010244
      1.88501      0.00000     71.49053         0.000000     -0.000000     -0.003450
      1.88501      0.00000     87.43407         0.000000      0.000000      0.010244
      1.88501      1.88501     73.78642         0.000000      0.000000      0.004207
      1.88501      0.00000     82.84228         0.000000      0.000000      0.003415
      1.88501      0.00000     76.08231         0.000000      0.000000     -0.003614
      0.00000      1.88501     82.84228         0.000000      0.000000      0.003415
      0.00000      1.88501     76.08231         0.000000     -0.000000     -0.003614
 -----------------------------------------------------------------------------------
    total drift:                                0.000000      0.000000      0.000000


--------------------------------------------------------------------------------------------------------



  FREE ENERGIE OF THE ION-ELECTRON SYSTEM (eV)
  ---------------------------------------------------
  free  energy   TOTEN  =      -582.13250821 eV

  energy  without entropy=     -582.13250821  energy(sigma->0) =     -582.13250821
 


--------------------------------------------------------------------------------------------------------


    POTLOK:  cpu time    0.6656: real time    0.6657


--------------------------------------------------------------------------------------------------------


     LOOP+:  cpu time  697.5704: real time  721.6856
    4ORBIT:  cpu time    0.0000: real time    0.0000
 


 total charge     
 
# of ion       s       p       d       f       tot
--------------------------------------------------
    1        2.160   6.402   0.964   0.105   9.631
    2        2.159   6.376   0.919   0.100   9.554
    3        2.160   6.402   0.964   0.105   9.631
    4        2.160   6.402   0.964   0.105   9.631
    5        2.160   6.402   0.964   0.105   9.631
    6        2.160   6.402   0.964   0.105   9.631
    7        2.160   6.402   0.964   0.105   9.631
    8        2.160   6.402   0.964   0.105   9.631
    9        2.159   6.376   0.919   0.100   9.554
   10        2.160   6.402   0.964   0.105   9.631
   11        2.160   6.402   0.964   0.105   9.631
   12        2.160   6.402   0.964   0.105   9.631
   13        0.578   1.041   2.739   0.000   4.358
   14        0.577   1.034   2.741   0.000   4.353
   15        0.577   1.034   2.742   0.000   4.353
   16        0.578   1.035   2.742   0.000   4.354
   17        0.577   1.034   2.741   0.000   4.353
   18        0.577   1.034   2.741   0.000   4.353
   19        0.577   1.034   2.742   0.000   4.353
   20        0.577   1.034   2.742   0.000   4.353
   21        0.577   1.034   2.741   0.000   4.353
   22        0.578   1.041   2.739   0.000   4.358
   23        0.578   1.035   2.742   0.000   4.354
   24        0.577   1.034   2.742   0.000   4.353
   25        1.317   2.439   0.000   0.000   3.756
   26        1.318   2.461   0.000   0.000   3.779
   27        1.318   2.461   0.000   0.000   3.779
   28        1.318   2.461   0.000   0.000   3.779
   29        1.318   2.461   0.000   0.000   3.779
   30        1.318   2.461   0.000   0.000   3.779
   31        1.318   2.461   0.000   0.000   3.779
   32        1.318   2.461   0.000   0.000   3.779
   33        1.318   2.461   0.000   0.000   3.779
   34        1.317   2.439   0.000   0.000   3.756
   35        1.318   2.461   0.000   0.000   3.779
   36        1.318   2.461   0.000   0.000   3.779
   37        1.575   3.429   0.000   0.000   5.004
   38        1.575   3.410   0.000   0.000   4.984
   39        1.552   3.536   0.000   0.000   5.087
   40        1.552   3.537   0.000   0.000   5.088
   41        1.575   3.410   0.000   0.000   4.985
   42        1.576   3.429   0.000   0.000   5.005
   43        1.575   3.410   0.000   0.000   4.985
   44        1.552   3.536   0.000   0.000   5.087
   45        1.552   3.536   0.000   0.000   5.087
   46        1.575   3.410   0.000   0.000   4.985
   47        1.575   3.429   0.000   0.000   5.004
   48        1.575   3.410   0.000   0.000   4.985
   49        1.552   3.536   0.000   0.000   5.087
   50        1.552   3.536   0.000   0.000   5.087
   51        1.575   3.410   0.000   0.000   4.985
   52        1.575   3.429   0.000   0.000   5.004
   53        1.575   3.410   0.000   0.000   4.985
   54        1.552   3.536   0.000   0.000   5.087
   55        1.552   3.536   0.000   0.000   5.087
   56        1.575   3.410   0.000   0.000   4.985
   57        1.576   3.429   0.000   0.000   5.005
   58        1.575   3.410   0.000   0.000   4.985
   59        1.552   3.537   0.000   0.000   5.088
   60        1.552   3.536   0.000   0.000   5.087
   61        1.575   3.410   0.000   0.000   4.984
   62        1.575   3.429   0.000   0.000   5.004
   63        1.575   3.410   0.000   0.000   4.985
   64        1.552   3.536   0.000   0.000   5.087
   65        1.552   3.536   0.000   0.000   5.087
   66        1.575   3.410   0.000   0.000   4.985
--------------------------------------------------
tot         95.633 222.619  44.369   1.250 363.872

 

 total amount of memory used by VASP MPI-rank0    77659. kBytes
=======================================================================

   base      :      30000. kBytes
   nonlr-proj:      15515. kBytes
   fftplans  :       5753. kBytes
   grid      :      10846. kBytes
   one-center:        270. kBytes
   wavefun   :      15275. kBytes
 
  
  
 General timing and accounting informations for this job:
 ========================================================
  
                  Total CPU time used (sec):      779.904
                            User time (sec):      747.314
                          System time (sec):       32.589
                         Elapsed time (sec):      807.566
  
                   Maximum memory used (kb):      196280.
                   Average memory used (kb):           0.
  
                          Minor page faults:       100957
                          Major page faults:            0
                 Voluntary context switches:       189655
