 vasp.5.4.4.18Apr17-6-g9f103f2a35 (build Jun 20 2017 18:00:50) complex          
  
 executed on             LinuxIFC date 2020.05.13  10:21:07
 running on  256 total cores
 distrk:  each k-point on  128 cores,    2 groups
 distr:  one band on NCORES_PER_BAND=   8 cores,   16 groups


--------------------------------------------------------------------------------------------------------


 INCAR:
 POTCAR:    PAW_PBE Y_sv 25May2007                
 POTCAR:    PAW_PBE Ti 08Apr2002                  
 POTCAR:    PAW_PBE S 06Sep2000                   
 POTCAR:    PAW_PBE O 08Apr2002                   

 ----------------------------------------------------------------------------- 
|                                                                             |
|           W    W    AA    RRRRR   N    N  II  N    N   GGGG   !!!           |
|           W    W   A  A   R    R  NN   N  II  NN   N  G    G  !!!           |
|           W    W  A    A  R    R  N N  N  II  N N  N  G       !!!           |
|           W WW W  AAAAAA  RRRRR   N  N N  II  N  N N  G  GGG   !            |
|           WW  WW  A    A  R   R   N   NN  II  N   NN  G    G                |
|           W    W  A    A  R    R  N    N  II  N    N   GGGG   !!!           |
|                                                                             |
|      You have enabled k-point parallelism (KPAR>1).                         |
|      This developmental code was originally  written by Paul Kent at ORNL,  |
|      and carefully double checked in Vienna.                                |
|      GW as well as linear response parallelism added by Martijn Marsman     |
|      and Georg Kresse.                                                      |
|      Carefully verify results versus KPAR=1.                                |
|      Report problems to Paul Kent and Vienna.                               |
|                                                                             |
 ----------------------------------------------------------------------------- 

 POTCAR:    PAW_PBE Y_sv 25May2007                
   VRHFIN =Y: 4s4p5s4d                                                          
   LEXCH  = PE                                                                  
   EATOM  =  1046.9140 eV,   76.9460 Ry                                         
                                                                                
   TITEL  = PAW_PBE Y_sv 25May2007                                              
   LULTRA =        F    use ultrasoft PP ?                                      
   IUNSCR =        1    unscreen: 0-lin 1-nonlin 2-no                           
   RPACOR =    2.200    partial core radius                                     
   POMASS =   88.906; ZVAL   =   11.000    mass and valenz                      
   RCORE  =    2.800    outmost cutoff radius                                   
   RWIGS  =    3.430; RWIGS  =    1.815    wigner-seitz radius (au A)           
   ENMAX  =  202.626; ENMIN  =  151.970 eV                                      
   RCLOC  =    2.212    cutoff for local pot                                    
   LCOR   =        T    correct aug charges                                     
   LPAW   =        T    paw PP                                                  
   EAUG   =  470.889                                                            
   DEXC   =    0.000                                                            
   RMAX   =    2.863    core radius for proj-oper                               
   RAUG   =    1.300    factor for augmentation sphere                          
   RDEP   =    2.926    radius for radial grids                                 
   RDEPT  =    2.280    core radius for aug-charge                              
                                                                                
   Atomic configuration                                                         
   11 entries                                                                   
     n  l   j            E        occ.                                          
     1  0  0.50    -16863.0720   2.0000                                         
     2  0  0.50     -2309.2881   2.0000                                         
     2  1  1.50     -2055.5536   6.0000                                         
     3  0  0.50      -367.1837   2.0000                                         
     3  1  1.50      -284.8912   6.0000                                         
     3  2  2.50      -149.4324  10.0000                                         
     4  0  0.50       -46.3345   2.0000                                         
     5  0  0.50        -3.6387   1.0000                                         
     4  1  1.50       -26.3769   6.0000                                         
     4  2  2.50        -1.6291   2.0000                                         
     4  3  2.50        -1.3606   0.0000                                         
   Description                                                                  
     l       E           TYP  RCUT    TYP  RCUT                                 
     0    -46.3344714     23  2.600                                             
     0     -3.6387002     23  2.700                                             
     1    -26.3769044     23  2.600                                             
     1    -27.7374870     23  2.600                                             
     2     -1.6291019     23  2.600                                             
     2      0.1354037     23  2.600                                             
     3     -1.3605826     23  2.800                                             
  local pseudopotential read in
  partial core-charges read in
  partial kinetic energy density read in
  atomic valenz-charges read in
  non local Contribution for L=           0  read in
    real space projection operators read in
  non local Contribution for L=           0  read in
    real space projection operators read in
  non local Contribution for L=           1  read in
    real space projection operators read in
  non local Contribution for L=           1  read in
    real space projection operators read in
  non local Contribution for L=           2  read in
    real space projection operators read in
  non local Contribution for L=           2  read in
    real space projection operators read in
  non local Contribution for L=           3  read in
    real space projection operators read in
    PAW grid and wavefunctions read in
 
   number of l-projection  operators is LMAX  =           7
   number of lm-projection operators is LMMAX =          25
 
 POTCAR:    PAW_PBE Ti 08Apr2002                  
   VRHFIN =Ti: d3 s1                                                            
   LEXCH  = PE                                                                  
   EATOM  =    94.7928 eV,    6.9671 Ry                                         
                                                                                
   TITEL  = PAW_PBE Ti 08Apr2002                                                
   LULTRA =        F    use ultrasoft PP ?                                      
   IUNSCR =        1    unscreen: 0-lin 1-nonlin 2-no                           
   RPACOR =    2.200    partial core radius                                     
   POMASS =   47.880; ZVAL   =    4.000    mass and valenz                      
   RCORE  =    2.800    outmost cutoff radius                                   
   RWIGS  =    2.500; RWIGS  =    1.323    wigner-seitz radius (au A)           
   ENMAX  =  178.330; ENMIN  =  133.747 eV                                      
   RCLOC  =    2.215    cutoff for local pot                                    
   LCOR   =        T    correct aug charges                                     
   LPAW   =        T    paw PP                                                  
   EAUG   =  328.883                                                            
   DEXC   =    0.000                                                            
   RMAX   =    2.868    core radius for proj-oper                               
   RAUG   =    1.300    factor for augmentation sphere                          
   RDEP   =    2.885    radius for radial grids                                 
   RDEPT  =    2.320    core radius for aug-charge                              
                                                                                
   Atomic configuration                                                         
    9 entries                                                                   
     n  l   j            E        occ.                                          
     1  0  0.50     -4865.3608   2.0000                                         
     2  0  0.50      -533.1367   2.0000                                         
     2  1  1.50      -440.5031   6.0000                                         
     3  0  0.50       -59.3186   2.0000                                         
     3  1  1.50       -35.7012   6.0000                                         
     3  2  2.50        -1.9157   3.0000                                         
     4  0  0.50        -3.7291   1.0000                                         
     4  1  1.50        -4.0817   0.0000                                         
     4  3  2.50        -1.3606   0.0000                                         
   Description                                                                  
     l       E           TYP  RCUT    TYP  RCUT                                 
     2     -1.9156924     23  2.800                                             
     2     -0.4062961     23  2.800                                             
     0     -3.7290832     23  2.800                                             
     0     20.4087390     23  2.800                                             
     1     -5.4423304     23  2.800                                             
  local pseudopotential read in
  partial core-charges read in
  partial kinetic energy density read in
  atomic valenz-charges read in
  non local Contribution for L=           2  read in
    real space projection operators read in
  non local Contribution for L=           2  read in
    real space projection operators read in
  non local Contribution for L=           0  read in
    real space projection operators read in
  non local Contribution for L=           0  read in
    real space projection operators read in
  non local Contribution for L=           1  read in
    real space projection operators read in
    PAW grid and wavefunctions read in
 
   number of l-projection  operators is LMAX  =           5
   number of lm-projection operators is LMMAX =          15
 
 POTCAR:    PAW_PBE S 06Sep2000                   
   VRHFIN =S : s2p4                                                             
   LEXCH  = PE                                                                  
   EATOM  =   276.8230 eV,   20.3459 Ry                                         
                                                                                
   TITEL  = PAW_PBE S 06Sep2000                                                 
   LULTRA =        F    use ultrasoft PP ?                                      
   IUNSCR =        1    unscreen: 0-lin 1-nonlin 2-no                           
   RPACOR =    1.500    partial core radius                                     
   POMASS =   32.066; ZVAL   =    6.000    mass and valenz                      
   RCORE  =    1.900    outmost cutoff radius                                   
   RWIGS  =    2.200; RWIGS  =    1.164    wigner-seitz radius (au A)           
   ENMAX  =  258.689; ENMIN  =  194.016 eV                                      
   ICORE  =        2    local potential                                         
   LCOR   =        T    correct aug charges                                     
   LPAW   =        T    paw PP                                                  
   EAUG   =  335.092                                                            
   DEXC   =    0.000                                                            
   RMAX   =    1.942    core radius for proj-oper                               
   RAUG   =    1.300    factor for augmentation sphere                          
   RDEP   =    1.954    radius for radial grids                                 
   RDEPT  =    1.744    core radius for aug-charge                              
                                                                                
   Atomic configuration                                                         
    6 entries                                                                   
     n  l   j            E        occ.                                          
     1  0  0.50     -2405.8406   2.0000                                         
     2  0  0.50      -211.7007   2.0000                                         
     2  1  1.50      -156.4958   6.0000                                         
     3  0  0.50       -17.2562   2.0000                                         
     3  1  0.50        -7.0085   4.0000                                         
     3  2  1.50        -6.8029   0.0000                                         
   Description                                                                  
     l       E           TYP  RCUT    TYP  RCUT                                 
     0    -17.2561641     23  1.900                                             
     0    -15.8743224     23  1.900                                             
     1     -7.0085400     23  1.900                                             
     1     -2.7779785     23  1.900                                             
     2     -6.8029130     23  1.900                                             
  local pseudopotential read in
  partial core-charges read in
  partial kinetic energy density read in
  atomic valenz-charges read in
  non local Contribution for L=           0  read in
    real space projection operators read in
  non local Contribution for L=           0  read in
    real space projection operators read in
  non local Contribution for L=           1  read in
    real space projection operators read in
  non local Contribution for L=           1  read in
    real space projection operators read in
    PAW grid and wavefunctions read in
 
   number of l-projection  operators is LMAX  =           4
   number of lm-projection operators is LMMAX =           8
 
 POTCAR:    PAW_PBE O 08Apr2002                   
   VRHFIN =O: s2p4                                                              
   LEXCH  = PE                                                                  
   EATOM  =   432.3788 eV,   31.7789 Ry                                         
                                                                                
   TITEL  = PAW_PBE O 08Apr2002                                                 
   LULTRA =        F    use ultrasoft PP ?                                      
   IUNSCR =        1    unscreen: 0-lin 1-nonlin 2-no                           
   RPACOR =    1.200    partial core radius                                     
   POMASS =   16.000; ZVAL   =    6.000    mass and valenz                      
   RCORE  =    1.520    outmost cutoff radius                                   
   RWIGS  =    1.550; RWIGS  =    0.820    wigner-seitz radius (au A)           
   ENMAX  =  400.000; ENMIN  =  300.000 eV                                      
   ICORE  =        2    local potential                                         
   LCOR   =        T    correct aug charges                                     
   LPAW   =        T    paw PP                                                  
   EAUG   =  605.392                                                            
   DEXC   =    0.000                                                            
   RMAX   =    1.553    core radius for proj-oper                               
   RAUG   =    1.300    factor for augmentation sphere                          
   RDEP   =    1.550    radius for radial grids                                 
   RDEPT  =    1.329    core radius for aug-charge                              
                                                                                
   Atomic configuration                                                         
    4 entries                                                                   
     n  l   j            E        occ.                                          
     1  0  0.50      -514.6923   2.0000                                         
     2  0  0.50       -23.9615   2.0000                                         
     2  1  0.50        -9.0305   4.0000                                         
     3  2  1.50        -9.5241   0.0000                                         
   Description                                                                  
     l       E           TYP  RCUT    TYP  RCUT                                 
     0    -23.9615318     23  1.200                                             
     0     -9.5240782     23  1.200                                             
     1     -9.0304911     23  1.520                                             
     1      8.1634956     23  1.520                                             
     2     -9.5240782      7  1.500                                             
  local pseudopotential read in
  partial core-charges read in
  partial kinetic energy density read in
  kinetic energy density of atom read in
  atomic valenz-charges read in
  non local Contribution for L=           0  read in
    real space projection operators read in
  non local Contribution for L=           0  read in
    real space projection operators read in
  non local Contribution for L=           1  read in
    real space projection operators read in
  non local Contribution for L=           1  read in
    real space projection operators read in
    PAW grid and wavefunctions read in
 
   number of l-projection  operators is LMAX  =           4
   number of lm-projection operators is LMMAX =           8
 
 Optimization of the real space projectors (new method)

 maximal supplied QI-value         = 13.42
 optimisation between [QCUT,QGAM] = [ 11.67, 23.35] = [ 38.16,152.62] Ry 
 Optimized for a Real-space Cutoff    1.68 Angstroem

   l    n(q)    QCUT    max X(q) W(low)/X(q) W(high)/X(q)  e(spline) 
   0     12    11.673    14.902    0.22E-04    0.24E-05    0.52E-07
   0     12    11.673     9.294    0.34E-04    0.58E-05    0.89E-07
   1     11    11.673    69.520    0.10E-04    0.47E-04    0.49E-06
   1     11    11.673    72.085    0.10E-04    0.48E-04    0.50E-06
   2     11    11.673    62.934    0.94E-04    0.14E-04    0.82E-06
   2     11    11.673    49.749    0.91E-04    0.13E-04    0.79E-06
   3     10    11.673     8.311    0.92E-04    0.21E-04    0.59E-06
 Optimization of the real space projectors (new method)

 maximal supplied QI-value         = 13.42
 optimisation between [QCUT,QGAM] = [ 11.67, 23.35] = [ 38.16,152.62] Ry 
 Optimized for a Real-space Cutoff    1.58 Angstroem

   l    n(q)    QCUT    max X(q) W(low)/X(q) W(high)/X(q)  e(spline) 
   2     10    11.673    49.363    0.16E-03    0.28E-03    0.91E-06
   2     10    11.673    47.669    0.16E-03    0.27E-03    0.88E-06
   0     11    11.673    26.374    0.54E-04    0.10E-03    0.52E-06
   0     11    11.673    11.549    0.41E-04    0.83E-04    0.43E-06
   1     11    11.673     9.492    0.36E-04    0.11E-04    0.17E-06
 Optimization of the real space projectors (new method)

 maximal supplied QI-value         = 19.84
 optimisation between [QCUT,QGAM] = [ 11.51, 23.22] = [ 37.09,150.92] Ry 
 Optimized for a Real-space Cutoff    1.21 Angstroem

   l    n(q)    QCUT    max X(q) W(low)/X(q) W(high)/X(q)  e(spline) 
   0      8    11.508   187.594    0.96E-04    0.18E-03    0.54E-07
   0      8    11.508   164.243    0.96E-04    0.18E-03    0.54E-07
   1      8    11.508    67.533    0.18E-03    0.65E-04    0.94E-07
   1      8    11.508    50.729    0.18E-03    0.63E-04    0.92E-07
 Optimization of the real space projectors (new method)

 maximal supplied QI-value         = 24.76
 optimisation between [QCUT,QGAM] = [ 11.64, 23.27] = [ 37.91,151.63] Ry 
 Optimized for a Real-space Cutoff    1.14 Angstroem

   l    n(q)    QCUT    max X(q) W(low)/X(q) W(high)/X(q)  e(spline) 
   0      8    11.635    20.381    0.10E-03    0.33E-03    0.24E-06
   0      8    11.635    15.268    0.11E-03    0.35E-03    0.26E-06
   1      7    11.635     5.964    0.24E-03    0.31E-03    0.30E-06
   1      7    11.635     5.382    0.22E-03    0.25E-03    0.26E-06

 ----------------------------------------------------------------------------- 
|                                                                             |
|  ADVICE TO THIS USER RUNNING 'VASP/VAMP'   (HEAR YOUR MASTER'S VOICE ...):  |
|                                                                             |
|      You enforced a specific xc-type in the INCAR file,                     |
|      a different type was found on the POTCAR file                          |
|          I HOPE YOU KNOW, WHAT YOU ARE  DOING                               |
|                                                                             |
 ----------------------------------------------------------------------------- 

  PAW_PBE Y_sv 25May2007                :
 energy of atom  1       EATOM=-1046.9140
 kinetic energy error for atom=    0.0008 (will be added to EATOM!!)
  PAW_PBE Ti 08Apr2002                  :
 energy of atom  2       EATOM=  -94.7928
 kinetic energy error for atom=    0.0002 (will be added to EATOM!!)
  PAW_PBE S 06Sep2000                   :
 energy of atom  3       EATOM= -276.8230
 kinetic energy error for atom=    0.0016 (will be added to EATOM!!)
  PAW_PBE O 08Apr2002                   :
 energy of atom  4       EATOM= -432.3788
 kinetic energy error for atom=    0.0208 (will be added to EATOM!!)
 
 
 POSCAR: Y4 Ti4 S4 O10                           
  positions in direct lattice
  No initial velocities read in
 exchange correlation table for  LEXCH =       14
   RHO(1)=    0.500       N(1)  =     2000
   RHO(2)=  100.500       N(2)  =     4000
 


--------------------------------------------------------------------------------------------------------


 ion  position               nearest neighbor table
   1  0.500  0.500  0.604-  15 2.41  17 2.41  17 2.41  15 2.41  10 2.81  10 2.81  10 2.81  10 2.81
                             6 3.32   6 3.32   6 3.32   6 3.32
   2  0.000  0.000  0.396-  14 2.41  16 2.41  14 2.41  16 2.41   9 2.81   9 2.81   9 2.81   9 2.81
                             5 3.32   5 3.32   5 3.32   5 3.32
   3  0.000  0.000  0.479-  20 2.41  22 2.41  22 2.41  20 2.41  12 2.81  12 2.81  12 2.81  12 2.81
                            11 2.88   8 3.32   8 3.32   8 3.32   8 3.32
   4  0.500  0.500  0.521-  19 2.41  21 2.41  19 2.41  21 2.41  11 2.81  11 2.81  11 2.81  11 2.81
                            12 2.88   7 3.32   7 3.32   7 3.32   7 3.32
   5  0.500  0.500  0.417-  18 1.82  16 1.94  14 1.94  16 1.94  14 1.94   9 2.85   2 3.32   2 3.32
                             2 3.32   2 3.32
   6  0.000  0.000  0.583-  13 1.82  15 1.94  17 1.94  15 1.94  17 1.94  10 2.85   1 3.32   1 3.32
                             1 3.32   1 3.32
   7  0.000  0.000  0.542-  13 1.82  19 1.94  21 1.94  21 1.94  19 1.94  11 2.85   4 3.32   4 3.32
                             4 3.32   4 3.32
   8  0.500  0.500  0.458-  18 1.82  20 1.94  22 1.94  20 1.94  22 1.94  12 2.85   3 3.32   3 3.32
                             3 3.32   3 3.32
   9  0.500  0.500  0.386-   2 2.81   2 2.81   2 2.81   2 2.81   5 2.85
  10  0.000  0.000  0.614-   1 2.81   1 2.81   1 2.81   1 2.81   6 2.85
  11  0.000  0.000  0.511-   4 2.81   4 2.81   4 2.81   4 2.81   7 2.85   3 2.88
  12  0.500  0.500  0.489-   3 2.81   3 2.81   3 2.81   3 2.81   8 2.85   4 2.88
  13  0.000  0.000  0.562-   6 1.82   7 1.82
  14  0.000  0.500  0.412-   5 1.94   5 1.94   2 2.41   2 2.41
  15  0.000  0.500  0.588-   6 1.94   6 1.94   1 2.41   1 2.41
  16  0.500  0.000  0.412-   5 1.94   5 1.94   2 2.41   2 2.41
  17  0.500  0.000  0.588-   6 1.94   6 1.94   1 2.41   1 2.41
  18  0.500  0.500  0.438-   5 1.82   8 1.82
  19  0.500  0.000  0.537-   7 1.94   7 1.94   4 2.41   4 2.41
  20  0.500  0.000  0.463-   8 1.94   8 1.94   3 2.41   3 2.41
  21  0.000  0.500  0.537-   7 1.94   7 1.94   4 2.41   4 2.41
  22  0.000  0.500  0.463-   8 1.94   8 1.94   3 2.41   3 2.41
 
  LATTYP: Found a simple tetragonal cell.
 ALAT       =     3.7700230000
 C/A-ratio  =    24.0884615293
  
  Lattice vectors:
  
 A1 = (   3.7700230000,   0.0000000000,   0.0000000000)
 A2 = (   0.0000000000,   3.7700230000,   0.0000000000)
 A3 = (   0.0000000000,   0.0000000000,  90.8140540000)


Analysis of symmetry for initial positions (statically):
=====================================================================
 Subroutine PRICEL returns:
 Original cell was already a primitive cell.
 

 Routine SETGRP: Setting up the symmetry group for a 
 simple tetragonal supercell.


 Subroutine GETGRP returns: Found 16 space group operations
 (whereof  8 operations were pure point group operations)
 out of a pool of 16 trial point group operations.


The static configuration has the point symmetry C_4v.
 The point group associated with its full space group is D_4h.


Analysis of symmetry for dynamics (positions and initial velocities):
=====================================================================
 Subroutine PRICEL returns:
 Original cell was already a primitive cell.
 

 Routine SETGRP: Setting up the symmetry group for a 
 simple tetragonal supercell.


 Subroutine GETGRP returns: Found 16 space group operations
 (whereof  8 operations were pure point group operations)
 out of a pool of 16 trial point group operations.


The dynamic configuration has the point symmetry C_4v.
 The point group associated with its full space group is D_4h.


 Subroutine INISYM returns: Found 16 space group operations
 (whereof  8 operations are pure point group operations),
 and found     1 'primitive' translations

 
 
 KPOINTS: Automatic mesh                          

Automatic generation of k-mesh.
Space group operators:
 irot       det(A)        alpha          n_x          n_y          n_z        tau_x        tau_y        tau_z
    1     1.000000     0.000000     1.000000     0.000000     0.000000     0.000000     0.000000     0.000000
    2     1.000000    90.000000     0.000000     0.000000    -1.000000     0.000000     0.000000     0.000000
    3     1.000000   180.000000     0.000000     0.000000     1.000000     0.000000     0.000000     0.000000
    4     1.000000    90.000000     0.000000     0.000000     1.000000     0.000000     0.000000     0.000000
    5    -1.000000   180.000000     0.000000     1.000000     0.000000     0.000000     0.000000     0.000000
    6    -1.000000   180.000000     0.707107     0.707107     0.000000     0.000000     0.000000     0.000000
    7    -1.000000   180.000000     1.000000     0.000000     0.000000     0.000000     0.000000     0.000000
    8    -1.000000   180.000000     0.707107    -0.707107     0.000000     0.000000     0.000000     0.000000
    9    -1.000000     0.000000     1.000000     0.000000     0.000000     0.500000     0.500000     0.000000
   10    -1.000000    90.000000     0.000000     0.000000    -1.000000     0.500000     0.500000     0.000000
   11    -1.000000   180.000000     0.000000     0.000000     1.000000     0.500000     0.500000     0.000000
   12    -1.000000    90.000000     0.000000     0.000000     1.000000     0.500000     0.500000     0.000000
   13     1.000000   180.000000     0.000000     1.000000     0.000000     0.500000     0.500000     0.000000
   14     1.000000   180.000000     0.707107     0.707107     0.000000     0.500000     0.500000     0.000000
   15     1.000000   180.000000     1.000000     0.000000     0.000000     0.500000     0.500000     0.000000
   16     1.000000   180.000000     0.707107    -0.707107     0.000000     0.500000     0.500000     0.000000
 
 Subroutine IBZKPT returns following result:
 ===========================================
 
 Found     10 irreducible k-points:
 
 Following reciprocal coordinates:
            Coordinates               Weight
  0.000000  0.000000  0.000000      1.000000
  0.166667  0.000000  0.000000      4.000000
  0.333333  0.000000  0.000000      4.000000
  0.500000  0.000000  0.000000      2.000000
  0.166667  0.166667  0.000000      4.000000
  0.333333  0.166667  0.000000      8.000000
  0.500000  0.166667  0.000000      4.000000
  0.333333  0.333333  0.000000      4.000000
  0.500000  0.333333  0.000000      4.000000
  0.500000  0.500000  0.000000      1.000000
 
 Following cartesian coordinates:
            Coordinates               Weight
  0.000000  0.000000  0.000000      1.000000
  0.044208  0.000000  0.000000      4.000000
  0.088417  0.000000  0.000000      4.000000
  0.132625  0.000000  0.000000      2.000000
  0.044208  0.044208  0.000000      4.000000
  0.088417  0.044208  0.000000      8.000000
  0.132625  0.044208  0.000000      4.000000
  0.088417  0.088417  0.000000      4.000000
  0.132625  0.088417  0.000000      4.000000
  0.132625  0.132625  0.000000      1.000000
 


--------------------------------------------------------------------------------------------------------




 Dimension of arrays:
   k-points           NKPTS =     10   k-points in BZ     NKDIM =     10   number of bands    NBANDS=     96
   number of dos      NEDOS =   2000   number of ions     NIONS =     22
   non local maximal  LDIM  =      7   non local SUM 2l+1 LMDIM =     25
   total plane-waves  NPLWV = 537824
   max r-space proj   IRMAX =   8267   max aug-charges    IRDMAX=  30235
   dimension x,y,z NGX =    28 NGY =   28 NGZ =  686
   dimension x,y,z NGXF=    56 NGYF=   56 NGZF= 1372
   support grid    NGXF=    56 NGYF=   56 NGZF= 1372
   ions per type =               4   4   4  10
   NGX,Y,Z   is equivalent  to a cutoff of  12.35, 12.35, 12.56 a.u.
   NGXF,Y,Z  is equivalent  to a cutoff of  24.69, 24.69, 25.12 a.u.

 SYSTEM =  Generic Input                           
 POSCAR =  Y4 Ti4 S4 O10                           

 Startparameter for this run:
   NWRITE =      2    write-flag & timer
   PREC   = accura    normal or accurate (medium, high low for compatibility)
   ISTART =      0    job   : 0-new  1-cont  2-samecut
   ICHARG =      2    charge: 1-file 2-atom 10-const
   ISPIN  =      1    spin polarized calculation?
   LNONCOLLINEAR =      F non collinear calculations
   LSORBIT =      F    spin-orbit coupling
   INIWAV =      1    electr: 0-lowe 1-rand  2-diag
   LASPH  =      T    aspherical Exc in radial PAW
   METAGGA=      F    non-selfconsistent MetaGGA calc.

 Electronic Relaxation 1
   ENCUT  =  520.0 eV  38.22 Ry    6.18 a.u.   7.01  7.01168.85*2*pi/ulx,y,z
   ENINI  =  520.0     initial cutoff
   ENAUG  =  605.4 eV  augmentation charge cutoff
   NELM   =    200;   NELMIN=  2; NELMDL=  0     # of ELM steps 
   EDIFF  = 0.1E-05   stopping-criterion for ELM
   LREAL  =      T    real-space projection
   NLSPLINE    = F    spline interpolate recip. space projectors
   LCOMPAT=      F    compatible to vasp.4.4
   GGA_COMPAT  = T    GGA compatible to vasp.4.4-vasp.4.6
   LMAXPAW     = -100 max onsite density
   LMAXMIX     =    2 max onsite mixed and CHGCAR
   VOSKOWN=      0    Vosko Wilk Nusair interpolation
   ROPT   =   -0.00025  -0.00025  -0.00025  -0.00025
 Ionic relaxation
   EDIFFG = -.1E-01   stopping-criterion for IOM
   NSW    =      0    number of steps for IOM
   NBLOCK =      1;   KBLOCK =      1    inner block; outer block 
   IBRION =     -1    ionic relax: 0-MD 1-quasi-New 2-CG
   NFREE  =      0    steps in history (QN), initial steepest desc. (CG)
   ISIF   =      2    stress and relaxation
   IWAVPR =     11    prediction:  0-non 1-charg 2-wave 3-comb
   ISYM   =      2    0-nonsym 1-usesym 2-fastsym
   LCORR  =      T    Harris-Foulkes like correction to forces

   POTIM  = 0.5000    time-step for ionic-motion
   TEIN   =    0.0    initial temperature
   TEBEG  =    0.0;   TEEND  =   0.0 temperature during run
   SMASS  =  -3.00    Nose mass-parameter (am)
   estimated Nose-frequenzy (Omega)   =  0.10E-29 period in steps =****** mass=  -0.325E-27a.u.
   SCALEE = 1.0000    scale energy and forces
   NPACO  =    256;   APACO  = 16.0  distance and # of slots for P.C.
   PSTRESS=    0.0 pullay stress

  Mass of Ions in am
   POMASS =  88.91 47.88 32.07 16.00
  Ionic Valenz
   ZVAL   =  11.00  4.00  6.00  6.00
  Atomic Wigner-Seitz radii
   RWIGS  =  -1.00 -1.00 -1.00 -1.00
  virtual crystal weights 
   VCA    =   1.00  1.00  1.00  1.00
   NELECT =     144.0000    total number of electrons
   NUPDOWN=      -1.0000    fix difference up-down

 DOS related values:
   EMIN   =  10.00;   EMAX   =-10.00  energy-range for DOS
   EFERMI =   0.00
   ISMEAR =     0;   SIGMA  =   0.02  broadening in eV -4-tet -1-fermi 0-gaus

 Electronic relaxation 2 (details)
   IALGO  =     38    algorithm
   LDIAG  =      T    sub-space diagonalisation (order eigenvalues)
   LSUBROT=      F    optimize rotation matrix (better conditioning)
   TURBO    =      0    0=normal 1=particle mesh
   IRESTART =      0    0=no restart 2=restart with 2 vectors
   NREBOOT  =      0    no. of reboots
   NMIN     =      0    reboot dimension
   EREF     =   0.00    reference energy to select bands
   IMIX   =      4    mixing-type and parameters
     AMIX     =   0.40;   BMIX     =  1.00
     AMIX_MAG =   1.60;   BMIX_MAG =  1.00
     AMIN     =   0.05
     WC   =   100.;   INIMIX=   1;  MIXPRE=   1;  MAXMIX= -45

 Intra band minimization:
   WEIMIN = 0.0000     energy-eigenvalue tresh-hold
   EBREAK =  0.26E-08  absolut break condition
   DEPER  =   0.30     relativ break condition  

   TIME   =   0.40     timestep for ELM

  volume/ion in A,a.u.               =      58.67       395.93
  Fermi-wavevector in a.u.,A,eV,Ry     =   0.788101  1.489295  8.450626  0.621103
  Thomas-Fermi vector in A             =   1.892975
 
 Write flags
   LWAVE        =      F    write WAVECAR
   LDOWNSAMPLE  =      F    k-point downsampling of WAVECAR
   LCHARG       =      F    write CHGCAR
   LVTOT        =      F    write LOCPOT, total local potential
   LVHAR        =      T    write LOCPOT, Hartree potential only
   LELF         =      F    write electronic localiz. function (ELF)
   LORBIT       =     11    0 simple, 1 ext, 2 COOP (PROOUT), +10 PAW based schemes


 Dipole corrections
   LMONO  =      F    monopole corrections only (constant potential shift)
   LDIPOL =      F    correct potential (dipole corrections)
   IDIPOL =      0    1-x, 2-y, 3-z, 4-all directions 
   EPSILON=  1.0000000 bulk dielectric constant

 Core level calculations are selected ICORELEVEL =  1
 Exchange correlation treatment:
   GGA     =    PS    GGA type
   LEXCH   =    14    internal setting for exchange type
   VOSKOWN=      0    Vosko Wilk Nusair interpolation
   LHFCALC =     F    Hartree Fock is set to
   LHFONE  =     F    Hartree Fock one center treatment
   AEXX    =    0.0000 exact exchange contribution

 Linear response parameters
   LEPSILON=     F    determine dielectric tensor
   LRPA    =     F    only Hartree local field effects (RPA)
   LNABLA  =     F    use nabla operator in PAW spheres
   LVEL    =     F    velocity operator in full k-point grid
   LINTERFAST=   F  fast interpolation
   KINTER  =     0    interpolate to denser k-point grid
   CSHIFT  =0.1000    complex shift for real part using Kramers Kronig
   OMEGAMAX=  -1.0    maximum frequency
   DEG_THRESHOLD= 0.2000000E-02 threshold for treating states as degnerate
   RTIME   =   -0.100 relaxation time in fs
  (WPLASMAI=    0.000 imaginary part of plasma frequency in eV, 0.658/RTIME)
   DFIELD  = 0.0000000 0.0000000 0.0000000 field for delta impulse in time
 
 Orbital magnetization related:
   ORBITALMAG=     F  switch on orbital magnetization
   LCHIMAG   =     F  perturbation theory with respect to B field
   DQ        =  0.001000  dq finite difference perturbation B field
   LLRAUG    =     F  two centre corrections for induced B field



--------------------------------------------------------------------------------------------------------


 Static calculation
 charge density and potential will be updated during run
 non-spin polarized calculation
 Variant of blocked Davidson
 Davidson routine will perform the subspace rotation
 perform sub-space diagonalisation
    after iterative eigenvector-optimisation
 modified Broyden-mixing scheme, WC =      100.0
 initial mixing is a Kerker type mixing with AMIX =  0.4000 and BMIX =      1.0000
 Hartree-type preconditioning will be used
 using additional bands           24
 real space projection scheme for non local part
 use partial core corrections
 calculate Harris-corrections to forces 
   (improved forces if not selfconsistent)
 use gradient corrections 
 use of overlap-Matrix (Vanderbilt PP)
 Gauss-broadening in eV      SIGMA  =   0.02


--------------------------------------------------------------------------------------------------------


  energy-cutoff  :      520.00
  volume of cell :     1290.75
      direct lattice vectors                 reciprocal lattice vectors
     3.770023000  0.000000000  0.000000000     0.265250371  0.000000000  0.000000000
     0.000000000  3.770023000  0.000000000     0.000000000  0.265250371  0.000000000
     0.000000000  0.000000000 90.814054000     0.000000000  0.000000000  0.011011512

  length of vectors
     3.770023000  3.770023000 90.814054000     0.265250371  0.265250371  0.011011512


 
 k-points in units of 2pi/SCALE and weight: Automatic mesh                          
   0.00000000  0.00000000  0.00000000       0.028
   0.04420840  0.00000000  0.00000000       0.111
   0.08841679  0.00000000  0.00000000       0.111
   0.13262519  0.00000000  0.00000000       0.056
   0.04420840  0.04420840  0.00000000       0.111
   0.08841679  0.04420840  0.00000000       0.222
   0.13262519  0.04420840  0.00000000       0.111
   0.08841679  0.08841679  0.00000000       0.111
   0.13262519  0.08841679  0.00000000       0.111
   0.13262519  0.13262519  0.00000000       0.028
 
 k-points in reciprocal lattice and weights: Automatic mesh                          
   0.00000000  0.00000000  0.00000000       0.028
   0.16666667  0.00000000  0.00000000       0.111
   0.33333333  0.00000000  0.00000000       0.111
   0.50000000  0.00000000  0.00000000       0.056
   0.16666667  0.16666667  0.00000000       0.111
   0.33333333  0.16666667  0.00000000       0.222
   0.50000000  0.16666667  0.00000000       0.111
   0.33333333  0.33333333  0.00000000       0.111
   0.50000000  0.33333333  0.00000000       0.111
   0.50000000  0.50000000  0.00000000       0.028
 
 position of ions in fractional coordinates (direct lattice) 
   0.50000000  0.50000000  0.60430700
   0.00000000  0.00000000  0.39569300
   0.00000000  0.00000000  0.47930700
   0.50000000  0.50000000  0.52069300
   0.50000000  0.50000000  0.41747200
   0.00000000  0.00000000  0.58252800
   0.00000000  0.00000000  0.54247200
   0.50000000  0.50000000  0.45752800
   0.50000000  0.50000000  0.38605200
   0.00000000  0.00000000  0.61394800
   0.00000000  0.00000000  0.51105200
   0.50000000  0.50000000  0.48894800
   0.00000000  0.00000000  0.56250000
   0.00000000  0.50000000  0.41221900
   0.00000000  0.50000000  0.58778100
   0.50000000  0.00000000  0.41221900
   0.50000000  0.00000000  0.58778100
   0.50000000  0.50000000  0.43750000
   0.50000000  0.00000000  0.53721900
   0.50000000  0.00000000  0.46278100
   0.00000000  0.50000000  0.53721900
   0.00000000  0.50000000  0.46278100
 
 position of ions in cartesian coordinates  (Angst):
   1.88501150  1.88501150 54.87956853
   0.00000000  0.00000000 35.93448547
   0.00000000  0.00000000 43.52781178
   1.88501150  1.88501150 47.28624222
   1.88501150  1.88501150 37.91232475
   0.00000000  0.00000000 52.90172925
   0.00000000  0.00000000 49.26408150
   1.88501150  1.88501150 41.54997250
   1.88501150  1.88501150 35.05894717
   0.00000000  0.00000000 55.75510683
   0.00000000  0.00000000 46.41070392
   1.88501150  1.88501150 44.40335008
   0.00000000  0.00000000 51.08290537
   0.00000000  1.88501150 37.43527853
   0.00000000  1.88501150 53.37877547
   1.88501150  0.00000000 37.43527853
   1.88501150  0.00000000 53.37877547
   1.88501150  1.88501150 39.73114863
   1.88501150  0.00000000 48.78703528
   1.88501150  0.00000000 42.02701872
   0.00000000  1.88501150 48.78703528
   0.00000000  1.88501150 42.02701872
 


--------------------------------------------------------------------------------------------------------


 k-point  1 :   0.0000 0.0000 0.0000  plane waves:   34349
 k-point  2 :   0.1667 0.0000 0.0000  plane waves:   34534
 k-point  3 :   0.3333 0.0000 0.0000  plane waves:   34652
 k-point  4 :   0.5000 0.0000 0.0000  plane waves:   34774
 k-point  5 :   0.1667 0.1667 0.0000  plane waves:   34716
 k-point  6 :   0.3333 0.1667 0.0000  plane waves:   34766
 k-point  7 :   0.5000 0.1667 0.0000  plane waves:   34856
 k-point  8 :   0.3333 0.3333 0.0000  plane waves:   34854
 k-point  9 :   0.5000 0.3333 0.0000  plane waves:   34852
 k-point 10 :   0.5000 0.5000 0.0000  plane waves:   34836

 maximum and minimum number of plane-waves per node :      4390     4260

 maximum number of plane-waves:     34856
 maximum index in each direction: 
   IXMAX=    7   IYMAX=    7   IZMAX=  168
   IXMIN=   -7   IYMIN=   -7   IZMIN= -168


 real space projection operators:
  total allocation   :      11716.86 KBytes
  max/ min on nodes  :       1657.92       1263.60


 parallel 3D FFT for wavefunctions:
    minimum data exchange during FFTs selected (reduces bandwidth)
 parallel 3D FFT for charge:
    minimum data exchange during FFTs selected (reduces bandwidth)


 total amount of memory used by VASP MPI-rank0    52678. kBytes
=======================================================================

   base      :      30000. kBytes
   nonlr-proj:       5133. kBytes
   fftplans  :       4572. kBytes
   grid      :       8613. kBytes
   one-center:         90. kBytes
   wavefun   :       4270. kBytes
 
     INWAV:  cpu time    0.0001: real time    0.0002
 Broyden mixing: mesh for mixing (old mesh)
   NGX = 15   NGY = 15   NGZ =337
  (NGX  = 56   NGY  = 56   NGZ  =***)
  gives a total of  75825 points

 initial charge density was supplied:
 charge density of overlapping atoms calculated
 number of electron     144.0000000 magnetization 
 keeping initial charge density in first step


--------------------------------------------------------------------------------------------------------


 Maximum index for non-local projection operator         1232
 Maximum index for augmentation-charges         1147 (set IRDMAX)


--------------------------------------------------------------------------------------------------------


 First call to EWALD:  gamma=   0.163
 Maximum number of real-space cells 7x 7x 1
 Maximum number of reciprocal cells 1x 1x19

    FEWALD:  cpu time    0.0062: real time    0.0062


--------------------------------------- Iteration      1(   1)  ---------------------------------------


    POTLOK:  cpu time    0.1104: real time    0.1173
    SETDIJ:  cpu time    0.4018: real time    0.4017
     EDDAV:  cpu time    4.1163: real time    4.1192
       DOS:  cpu time    0.0012: real time    0.0016
    --------------------------------------------
      LOOP:  cpu time    4.6297: real time    4.6398

 eigenvalue-minimisations  :  2048
 total energy-change (2. order) : 0.1517929E+04  (-0.5750504E+04)
 number of electron     144.0000000 magnetization 
 augmentation part      144.0000000 magnetization 

 Free energy of the ion-electron system (eV)
  ---------------------------------------------------
  alpha Z        PSCENC =       168.09871896
  Ewald energy   TEWEN  =    556797.68073218
  -Hartree energ DENC   =   -565257.09132823
  -exchange      EXHF   =         0.00000000
  -V(xc)+E(xc)   XCENC  =       355.22180443
  PAW double counting   =      8037.75159075    -7822.93820215
  entropy T*S    EENTRO =        -0.00529516
  eigenvalues    EBANDS =      -734.30289162
  atomic energy  EATOM  =      9973.51372603
  Solvation  Ediel_sol  =         0.00000000
  ---------------------------------------------------
  free energy    TOTEN  =      1517.92885518 eV

  energy without entropy =     1517.93415034  energy(sigma->0) =     1517.93150276


--------------------------------------------------------------------------------------------------------




--------------------------------------- Iteration      1(   2)  ---------------------------------------


     EDDAV:  cpu time    5.4765: real time    5.4807
       DOS:  cpu time    0.0010: real time    0.0010
    --------------------------------------------
      LOOP:  cpu time    5.4774: real time    5.4817

 eigenvalue-minimisations  :  2528
 total energy-change (2. order) :-0.1417625E+04  (-0.1362473E+04)
 number of electron     144.0000000 magnetization 
 augmentation part      144.0000000 magnetization 

 Free energy of the ion-electron system (eV)
  ---------------------------------------------------
  alpha Z        PSCENC =       168.09871896
  Ewald energy   TEWEN  =    556797.68073218
  -Hartree energ DENC   =   -565257.09132823
  -exchange      EXHF   =         0.00000000
  -V(xc)+E(xc)   XCENC  =       355.22180443
  PAW double counting   =      8037.75159075    -7822.93820215
  entropy T*S    EENTRO =        -0.00043290
  eigenvalues    EBANDS =     -2151.93294294
  atomic energy  EATOM  =      9973.51372603
  Solvation  Ediel_sol  =         0.00000000
  ---------------------------------------------------
  free energy    TOTEN  =       100.30366611 eV

  energy without entropy =      100.30409901  energy(sigma->0) =      100.30388256


--------------------------------------------------------------------------------------------------------




--------------------------------------- Iteration      1(   3)  ---------------------------------------


     EDDAV:  cpu time    4.6249: real time    4.6264
       DOS:  cpu time    0.0009: real time    0.0021
    --------------------------------------------
      LOOP:  cpu time    4.6258: real time    4.6284

 eigenvalue-minimisations  :  2704
 total energy-change (2. order) :-0.3191785E+03  (-0.3162335E+03)
 number of electron     144.0000000 magnetization 
 augmentation part      144.0000000 magnetization 

 Free energy of the ion-electron system (eV)
  ---------------------------------------------------
  alpha Z        PSCENC =       168.09871896
  Ewald energy   TEWEN  =    556797.68073218
  -Hartree energ DENC   =   -565257.09132823
  -exchange      EXHF   =         0.00000000
  -V(xc)+E(xc)   XCENC  =       355.22180443
  PAW double counting   =      8037.75159075    -7822.93820215
  entropy T*S    EENTRO =        -0.00000000
  eigenvalues    EBANDS =     -2471.11188789
  atomic energy  EATOM  =      9973.51372603
  Solvation  Ediel_sol  =         0.00000000
  ---------------------------------------------------
  free energy    TOTEN  =      -218.87484593 eV

  energy without entropy =     -218.87484593  energy(sigma->0) =     -218.87484593


--------------------------------------------------------------------------------------------------------




--------------------------------------- Iteration      1(   4)  ---------------------------------------


     EDDAV:  cpu time    3.0013: real time    3.0044
       DOS:  cpu time    0.0012: real time    0.0012
    --------------------------------------------
      LOOP:  cpu time    3.0025: real time    3.0056

 eigenvalue-minimisations  :  2752
 total energy-change (2. order) :-0.1604703E+02  (-0.1597820E+02)
 number of electron     144.0000000 magnetization 
 augmentation part      144.0000000 magnetization 

 Free energy of the ion-electron system (eV)
  ---------------------------------------------------
  alpha Z        PSCENC =       168.09871896
  Ewald energy   TEWEN  =    556797.68073218
  -Hartree energ DENC   =   -565257.09132823
  -exchange      EXHF   =         0.00000000
  -V(xc)+E(xc)   XCENC  =       355.22180443
  PAW double counting   =      8037.75159075    -7822.93820215
  entropy T*S    EENTRO =        -0.00000000
  eigenvalues    EBANDS =     -2487.15891904
  atomic energy  EATOM  =      9973.51372603
  Solvation  Ediel_sol  =         0.00000000
  ---------------------------------------------------
  free energy    TOTEN  =      -234.92187708 eV

  energy without entropy =     -234.92187708  energy(sigma->0) =     -234.92187708


--------------------------------------------------------------------------------------------------------




--------------------------------------- Iteration      1(   5)  ---------------------------------------


     EDDAV:  cpu time    4.4043: real time    4.6037
       DOS:  cpu time    0.0015: real time    0.0044
    CHARGE:  cpu time    0.1467: real time    0.2146
    MIXING:  cpu time    0.0025: real time    0.0050
    --------------------------------------------
      LOOP:  cpu time    4.5550: real time    4.8277

 eigenvalue-minimisations  :  3600
 total energy-change (2. order) :-0.1323419E+01  (-0.1322898E+01)
 number of electron     143.9999912 magnetization 
 augmentation part       14.8691977 magnetization 

 Broyden mixing:
  rms(total) = 0.85819E+01    rms(broyden)= 0.85817E+01
  rms(prec ) = 0.85900E+01
  weight for this iteration     100.00

 Free energy of the ion-electron system (eV)
  ---------------------------------------------------
  alpha Z        PSCENC =       168.09871896
  Ewald energy   TEWEN  =    556797.68073218
  -Hartree energ DENC   =   -565257.09132823
  -exchange      EXHF   =         0.00000000
  -V(xc)+E(xc)   XCENC  =       355.22180443
  PAW double counting   =      8037.75159075    -7822.93820215
  entropy T*S    EENTRO =        -0.00000000
  eigenvalues    EBANDS =     -2488.48233771
  atomic energy  EATOM  =      9973.51372603
  Solvation  Ediel_sol  =         0.00000000
  ---------------------------------------------------
  free energy    TOTEN  =      -236.24529575 eV

  energy without entropy =     -236.24529575  energy(sigma->0) =     -236.24529575


--------------------------------------------------------------------------------------------------------




--------------------------------------- Iteration      1(   6)  ---------------------------------------


    POTLOK:  cpu time    0.0635: real time    0.1070
    SETDIJ:  cpu time    0.3909: real time    0.3909
     EDDAV:  cpu time    3.4283: real time    3.4689
       DOS:  cpu time    0.0013: real time    0.0013
    CHARGE:  cpu time    0.3913: real time    0.3979
    MIXING:  cpu time    0.0072: real time    0.0074
    --------------------------------------------
      LOOP:  cpu time    4.2825: real time    4.3734

 eigenvalue-minimisations  :  2880
 total energy-change (2. order) : 0.4164037E+02  (-0.2184014E+02)
 number of electron     143.9999937 magnetization 
 augmentation part       16.4665298 magnetization 

 Broyden mixing:
  rms(total) = 0.51895E+01    rms(broyden)= 0.51893E+01
  rms(prec ) = 0.51910E+01
  weight for this iteration     100.00

 eigenvalues of (default mixing * dielectric matrix)
  average eigenvalue GAMMA=   1.1051
  1.1051

 Free energy of the ion-electron system (eV)
  ---------------------------------------------------
  alpha Z        PSCENC =       168.09871896
  Ewald energy   TEWEN  =    556797.68073218
  -Hartree energ DENC   =   -565471.88705858
  -exchange      EXHF   =         0.00000000
  -V(xc)+E(xc)   XCENC  =       372.44897897
  PAW double counting   =     10937.40175539   -10733.04609759
  entropy T*S    EENTRO =        -0.00000000
  eigenvalues    EBANDS =     -2238.81567969
  atomic energy  EATOM  =      9973.51372603
  Solvation  Ediel_sol  =         0.00000000
  ---------------------------------------------------
  free energy    TOTEN  =      -194.60492434 eV

  energy without entropy =     -194.60492434  energy(sigma->0) =     -194.60492434


--------------------------------------------------------------------------------------------------------




--------------------------------------- Iteration      1(   7)  ---------------------------------------


    POTLOK:  cpu time    0.1015: real time    0.1104
    SETDIJ:  cpu time    0.4536: real time    0.4607
     EDDAV:  cpu time    4.8080: real time    4.8632
       DOS:  cpu time    0.0009: real time    0.0012
    CHARGE:  cpu time    0.2882: real time    0.2882
    MIXING:  cpu time    0.0037: real time    0.0037
    --------------------------------------------
      LOOP:  cpu time    5.6559: real time    5.7275

 eigenvalue-minimisations  :  2736
 total energy-change (2. order) :-0.1740483E+01  (-0.6137687E+01)
 number of electron     143.9999928 magnetization 
 augmentation part       14.6038645 magnetization 

 Broyden mixing:
  rms(total) = 0.38885E+01    rms(broyden)= 0.38885E+01
  rms(prec ) = 0.38899E+01
  weight for this iteration     100.00

 eigenvalues of (default mixing * dielectric matrix)
  average eigenvalue GAMMA=   1.9659
  0.7246  3.2072

 Free energy of the ion-electron system (eV)
  ---------------------------------------------------
  alpha Z        PSCENC =       168.09871896
  Ewald energy   TEWEN  =    556797.68073218
  -Hartree energ DENC   =   -565422.91159929
  -exchange      EXHF   =         0.00000000
  -V(xc)+E(xc)   XCENC  =       366.16465838
  PAW double counting   =     13117.71224986   -12919.10093150
  entropy T*S    EENTRO =        -0.00000000
  eigenvalues    EBANDS =     -2277.50296207
  atomic energy  EATOM  =      9973.51372603
  Solvation  Ediel_sol  =         0.00000000
  ---------------------------------------------------
  free energy    TOTEN  =      -196.34540746 eV

  energy without entropy =     -196.34540746  energy(sigma->0) =     -196.34540746


--------------------------------------------------------------------------------------------------------




--------------------------------------- Iteration      1(   8)  ---------------------------------------


    POTLOK:  cpu time    0.0885: real time    0.1035
    SETDIJ:  cpu time    0.3944: real time    0.4053
     EDDAV:  cpu time    4.2225: real time    4.2238
       DOS:  cpu time    0.0016: real time    0.0016
    CHARGE:  cpu time    0.4062: real time    0.4064
    MIXING:  cpu time    0.0124: real time    0.0124
    --------------------------------------------
      LOOP:  cpu time    5.1257: real time    5.1530

 eigenvalue-minimisations  :  2912
 total energy-change (2. order) : 0.1324067E+01  (-0.2198651E+01)
 number of electron     143.9999933 magnetization 
 augmentation part       16.5202823 magnetization 

 Broyden mixing:
  rms(total) = 0.18828E+01    rms(broyden)= 0.18827E+01
  rms(prec ) = 0.18859E+01
  weight for this iteration     100.00

 eigenvalues of (default mixing * dielectric matrix)
  average eigenvalue GAMMA=   1.3809
  2.4337  1.0933  0.6157

 Free energy of the ion-electron system (eV)
  ---------------------------------------------------
  alpha Z        PSCENC =       168.09871896
  Ewald energy   TEWEN  =    556797.68073218
  -Hartree energ DENC   =   -565475.49940127
  -exchange      EXHF   =         0.00000000
  -V(xc)+E(xc)   XCENC  =       369.29563897
  PAW double counting   =     18327.87661521   -18131.20682448
  entropy T*S    EENTRO =        -0.00139629
  eigenvalues    EBANDS =     -2224.77915001
  atomic energy  EATOM  =      9973.51372603
  Solvation  Ediel_sol  =         0.00000000
  ---------------------------------------------------
  free energy    TOTEN  =      -195.02134070 eV

  energy without entropy =     -195.01994441  energy(sigma->0) =     -195.02064255


--------------------------------------------------------------------------------------------------------




--------------------------------------- Iteration      1(   9)  ---------------------------------------


    POTLOK:  cpu time    0.0948: real time    0.0950
    SETDIJ:  cpu time    0.4293: real time    0.4499
     EDDAV:  cpu time    3.9037: real time    3.9052
       DOS:  cpu time    0.0008: real time    0.0008
    CHARGE:  cpu time    0.2485: real time    0.2485
    MIXING:  cpu time    0.0029: real time    0.0030
    --------------------------------------------
      LOOP:  cpu time    4.6800: real time    4.7024

 eigenvalue-minimisations  :  2752
 total energy-change (2. order) : 0.1388336E+01  (-0.9729488E+00)
 number of electron     143.9999930 magnetization 
 augmentation part       15.0564638 magnetization 

 Broyden mixing:
  rms(total) = 0.32728E+00    rms(broyden)= 0.32724E+00
  rms(prec ) = 0.32824E+00
  weight for this iteration     100.00

 eigenvalues of (default mixing * dielectric matrix)
  average eigenvalue GAMMA=   1.3744
  2.5281  1.3635  1.0159  0.5901

 Free energy of the ion-electron system (eV)
  ---------------------------------------------------
  alpha Z        PSCENC =       168.09871896
  Ewald energy   TEWEN  =    556797.68073218
  -Hartree energ DENC   =   -565476.25267525
  -exchange      EXHF   =         0.00000000
  -V(xc)+E(xc)   XCENC  =       367.89341403
  PAW double counting   =     16638.94404882   -16440.58207339
  entropy T*S    EENTRO =        -0.00000000
  eigenvalues    EBANDS =     -2222.92889622
  atomic energy  EATOM  =      9973.51372603
  Solvation  Ediel_sol  =         0.00000000
  ---------------------------------------------------
  free energy    TOTEN  =      -193.63300484 eV

  energy without entropy =     -193.63300484  energy(sigma->0) =     -193.63300484


--------------------------------------------------------------------------------------------------------




--------------------------------------- Iteration      1(  10)  ---------------------------------------


    POTLOK:  cpu time    0.0839: real time    0.0858
    SETDIJ:  cpu time    0.4369: real time    0.4371
     EDDAV:  cpu time    3.8687: real time    4.2502
       DOS:  cpu time    0.0016: real time    0.0016
    CHARGE:  cpu time    0.3414: real time    0.3415
    MIXING:  cpu time    0.0277: real time    0.0277
    --------------------------------------------
      LOOP:  cpu time    4.7601: real time    5.1439

 eigenvalue-minimisations  :  2944
 total energy-change (2. order) : 0.6583064E-01  (-0.9707896E-01)
 number of electron     143.9999931 magnetization 
 augmentation part       15.2638568 magnetization 

 Broyden mixing:
  rms(total) = 0.21355E+00    rms(broyden)= 0.21354E+00
  rms(prec ) = 0.21387E+00
  weight for this iteration     100.00

 eigenvalues of (default mixing * dielectric matrix)
  average eigenvalue GAMMA=   1.2496
  1.9682  1.9682  0.8650  0.8650  0.5813

 Free energy of the ion-electron system (eV)
  ---------------------------------------------------
  alpha Z        PSCENC =       168.09871896
  Ewald energy   TEWEN  =    556797.68073218
  -Hartree energ DENC   =   -565501.93784096
  -exchange      EXHF   =         0.00000000
  -V(xc)+E(xc)   XCENC  =       368.95610783
  PAW double counting   =     16703.75676068   -16503.04962600
  entropy T*S    EENTRO =        -0.00000000
  eigenvalues    EBANDS =     -2200.58575293
  atomic energy  EATOM  =      9973.51372603
  Solvation  Ediel_sol  =         0.00000000
  ---------------------------------------------------
  free energy    TOTEN  =      -193.56717420 eV

  energy without entropy =     -193.56717420  energy(sigma->0) =     -193.56717420


--------------------------------------------------------------------------------------------------------




--------------------------------------- Iteration      1(  11)  ---------------------------------------


    POTLOK:  cpu time    0.1074: real time    0.1076
    SETDIJ:  cpu time    0.4181: real time    0.4181
     EDDAV:  cpu time    4.8379: real time    4.8737
       DOS:  cpu time    0.0010: real time    0.0014
    CHARGE:  cpu time    0.2861: real time    0.2861
    MIXING:  cpu time    0.0061: real time    0.0061
    --------------------------------------------
      LOOP:  cpu time    5.6566: real time    5.6928

 eigenvalue-minimisations  :  3040
 total energy-change (2. order) : 0.1090713E-01  (-0.1635487E-01)
 number of electron     143.9999930 magnetization 
 augmentation part       15.1798495 magnetization 

 Broyden mixing:
  rms(total) = 0.69498E-01    rms(broyden)= 0.69492E-01
  rms(prec ) = 0.69844E-01
  weight for this iteration     100.00

 eigenvalues of (default mixing * dielectric matrix)
  average eigenvalue GAMMA=   1.2185
  2.2241  1.5380  1.1056  1.1056  0.5725  0.7655

 Free energy of the ion-electron system (eV)
  ---------------------------------------------------
  alpha Z        PSCENC =       168.09871896
  Ewald energy   TEWEN  =    556797.68073218
  -Hartree energ DENC   =   -565506.52828008
  -exchange      EXHF   =         0.00000000
  -V(xc)+E(xc)   XCENC  =       368.78838179
  PAW double counting   =     16511.51032740   -16310.07965107
  entropy T*S    EENTRO =        -0.00000000
  eigenvalues    EBANDS =     -2196.54022228
  atomic energy  EATOM  =      9973.51372603
  Solvation  Ediel_sol  =         0.00000000
  ---------------------------------------------------
  free energy    TOTEN  =      -193.55626707 eV

  energy without entropy =     -193.55626707  energy(sigma->0) =     -193.55626707


--------------------------------------------------------------------------------------------------------




--------------------------------------- Iteration      1(  12)  ---------------------------------------


    POTLOK:  cpu time    0.1074: real time    0.1106
    SETDIJ:  cpu time    0.4004: real time    0.4005
     EDDAV:  cpu time    4.2407: real time    4.9126
       DOS:  cpu time    0.0008: real time    0.0008
    CHARGE:  cpu time    0.4446: real time    0.4447
    MIXING:  cpu time    0.0056: real time    0.0056
    --------------------------------------------
      LOOP:  cpu time    5.1994: real time    5.8748

 eigenvalue-minimisations  :  2704
 total energy-change (2. order) : 0.2808158E-02  (-0.2954572E-02)
 number of electron     143.9999930 magnetization 
 augmentation part       15.2128722 magnetization 

 Broyden mixing:
  rms(total) = 0.29643E-01    rms(broyden)= 0.29640E-01
  rms(prec ) = 0.30109E-01
  weight for this iteration     100.00

 eigenvalues of (default mixing * dielectric matrix)
  average eigenvalue GAMMA=   1.2714
  2.1268  2.1268  1.5993  0.8903  0.8903  0.5709  0.6951

 Free energy of the ion-electron system (eV)
  ---------------------------------------------------
  alpha Z        PSCENC =       168.09871896
  Ewald energy   TEWEN  =    556797.68073218
  -Hartree energ DENC   =   -565515.38248877
  -exchange      EXHF   =         0.00000000
  -V(xc)+E(xc)   XCENC  =       368.80228414
  PAW double counting   =     16556.25947952   -16354.23263333
  entropy T*S    EENTRO =        -0.00000000
  eigenvalues    EBANDS =     -2188.29327764
  atomic energy  EATOM  =      9973.51372603
  Solvation  Ediel_sol  =         0.00000000
  ---------------------------------------------------
  free energy    TOTEN  =      -193.55345891 eV

  energy without entropy =     -193.55345891  energy(sigma->0) =     -193.55345891


--------------------------------------------------------------------------------------------------------




--------------------------------------- Iteration      1(  13)  ---------------------------------------


    POTLOK:  cpu time    0.1517: real time    0.1518
    SETDIJ:  cpu time    0.3803: real time    0.3803
     EDDAV:  cpu time    3.9916: real time    4.1260
       DOS:  cpu time    0.0020: real time    0.0024
    CHARGE:  cpu time    0.2962: real time    0.2963
    MIXING:  cpu time    0.0039: real time    0.0039
    --------------------------------------------
      LOOP:  cpu time    4.8256: real time    4.9606

 eigenvalue-minimisations  :  2896
 total energy-change (2. order) : 0.1331129E-02  (-0.7921339E-03)
 number of electron     143.9999930 magnetization 
 augmentation part       15.2451279 magnetization 

 Broyden mixing:
  rms(total) = 0.26735E-01    rms(broyden)= 0.26734E-01
  rms(prec ) = 0.27086E-01
  weight for this iteration     100.00

 eigenvalues of (default mixing * dielectric matrix)
  average eigenvalue GAMMA=   1.2263
  2.2979  2.2979  1.3978  0.8852  0.8852  0.5861  0.7303  0.7303

 Free energy of the ion-electron system (eV)
  ---------------------------------------------------
  alpha Z        PSCENC =       168.09871896
  Ewald energy   TEWEN  =    556797.68073218
  -Hartree energ DENC   =   -565529.04450782
  -exchange      EXHF   =         0.00000000
  -V(xc)+E(xc)   XCENC  =       368.93507121
  PAW double counting   =     16566.57358029   -16363.88661424
  entropy T*S    EENTRO =        -0.00000000
  eigenvalues    EBANDS =     -2175.42283440
  atomic energy  EATOM  =      9973.51372603
  Solvation  Ediel_sol  =         0.00000000
  ---------------------------------------------------
  free energy    TOTEN  =      -193.55212778 eV

  energy without entropy =     -193.55212778  energy(sigma->0) =     -193.55212778


--------------------------------------------------------------------------------------------------------




--------------------------------------- Iteration      1(  14)  ---------------------------------------


    POTLOK:  cpu time    0.0935: real time    0.0949
    SETDIJ:  cpu time    0.4143: real time    0.4145
     EDDAV:  cpu time    3.7823: real time    3.8461
       DOS:  cpu time    0.0008: real time    0.0008
    CHARGE:  cpu time    0.2871: real time    0.2871
    MIXING:  cpu time    0.0118: real time    0.0118
    --------------------------------------------
      LOOP:  cpu time    4.5898: real time    4.6552

 eigenvalue-minimisations  :  3040
 total energy-change (2. order) : 0.8393286E-03  (-0.2172612E-03)
 number of electron     143.9999930 magnetization 
 augmentation part       15.2377154 magnetization 

 Broyden mixing:
  rms(total) = 0.11807E-01    rms(broyden)= 0.11807E-01
  rms(prec ) = 0.12330E-01
  weight for this iteration     100.00

 eigenvalues of (default mixing * dielectric matrix)
  average eigenvalue GAMMA=   1.2377
  2.3753  1.9412  1.9412  0.9731  0.9731  0.9590  0.7727  0.5809  0.6224

 Free energy of the ion-electron system (eV)
  ---------------------------------------------------
  alpha Z        PSCENC =       168.09871896
  Ewald energy   TEWEN  =    556797.68073218
  -Hartree energ DENC   =   -565534.52158340
  -exchange      EXHF   =         0.00000000
  -V(xc)+E(xc)   XCENC  =       368.92894169
  PAW double counting   =     16565.25545544   -16362.46698098
  entropy T*S    EENTRO =        -0.00000000
  eigenvalues    EBANDS =     -2170.04029837
  atomic energy  EATOM  =      9973.51372603
  Solvation  Ediel_sol  =         0.00000000
  ---------------------------------------------------
  free energy    TOTEN  =      -193.55128845 eV

  energy without entropy =     -193.55128845  energy(sigma->0) =     -193.55128845


--------------------------------------------------------------------------------------------------------




--------------------------------------- Iteration      1(  15)  ---------------------------------------


    POTLOK:  cpu time    0.1923: real time    0.1926
    SETDIJ:  cpu time    0.3290: real time    0.3292
     EDDAV:  cpu time    2.8403: real time    2.8412
       DOS:  cpu time    0.0008: real time    0.0008
    CHARGE:  cpu time    0.2310: real time    0.2310
    MIXING:  cpu time    0.0129: real time    0.0132
    --------------------------------------------
      LOOP:  cpu time    3.6064: real time    3.6080

 eigenvalue-minimisations  :  2848
 total energy-change (2. order) : 0.4686208E-03  (-0.8449396E-04)
 number of electron     143.9999930 magnetization 
 augmentation part       15.2307415 magnetization 

 Broyden mixing:
  rms(total) = 0.83033E-02    rms(broyden)= 0.83030E-02
  rms(prec ) = 0.88342E-02
  weight for this iteration     100.00

 eigenvalues of (default mixing * dielectric matrix)
  average eigenvalue GAMMA=   1.2510
  2.3406  2.1563  2.1563  1.1179  1.1179  0.8410  0.8410  0.7492  0.5789  0.6107

 Free energy of the ion-electron system (eV)
  ---------------------------------------------------
  alpha Z        PSCENC =       168.09871896
  Ewald energy   TEWEN  =    556797.68073218
  -Hartree energ DENC   =   -565540.47348415
  -exchange      EXHF   =         0.00000000
  -V(xc)+E(xc)   XCENC  =       368.91184117
  PAW double counting   =     16575.73137641   -16373.00093735
  entropy T*S    EENTRO =        -0.00000000
  eigenvalues    EBANDS =     -2164.01279308
  atomic energy  EATOM  =      9973.51372603
  Solvation  Ediel_sol  =         0.00000000
  ---------------------------------------------------
  free energy    TOTEN  =      -193.55081983 eV

  energy without entropy =     -193.55081983  energy(sigma->0) =     -193.55081983


--------------------------------------------------------------------------------------------------------




--------------------------------------- Iteration      1(  16)  ---------------------------------------


    POTLOK:  cpu time    0.1129: real time    0.1153
    SETDIJ:  cpu time    0.3710: real time    0.4197
     EDDAV:  cpu time    3.7947: real time    3.8987
       DOS:  cpu time    0.0009: real time    0.0009
    CHARGE:  cpu time    0.3397: real time    0.3399
    MIXING:  cpu time    0.0269: real time    0.0269
    --------------------------------------------
      LOOP:  cpu time    4.6461: real time    4.8014

 eigenvalue-minimisations  :  2656
 total energy-change (2. order) : 0.3489502E-03  (-0.3835476E-04)
 number of electron     143.9999930 magnetization 
 augmentation part       15.2336493 magnetization 

 Broyden mixing:
  rms(total) = 0.49119E-02    rms(broyden)= 0.49117E-02
  rms(prec ) = 0.55668E-02
  weight for this iteration     100.00

 eigenvalues of (default mixing * dielectric matrix)
  average eigenvalue GAMMA=   1.3747
  3.1117  2.3831  1.8836  1.8836  1.1048  1.1048  0.8279  0.8279  0.8149  0.5755
  0.6040

 Free energy of the ion-electron system (eV)
  ---------------------------------------------------
  alpha Z        PSCENC =       168.09871896
  Ewald energy   TEWEN  =    556797.68073218
  -Hartree energ DENC   =   -565546.66012286
  -exchange      EXHF   =         0.00000000
  -V(xc)+E(xc)   XCENC  =       368.93241938
  PAW double counting   =     16574.53166401   -16371.80100480
  entropy T*S    EENTRO =        -0.00000000
  eigenvalues    EBANDS =     -2157.84660378
  atomic energy  EATOM  =      9973.51372603
  Solvation  Ediel_sol  =         0.00000000
  ---------------------------------------------------
  free energy    TOTEN  =      -193.55047088 eV

  energy without entropy =     -193.55047088  energy(sigma->0) =     -193.55047088


--------------------------------------------------------------------------------------------------------




--------------------------------------- Iteration      1(  17)  ---------------------------------------


    POTLOK:  cpu time    0.1039: real time    0.1040
    SETDIJ:  cpu time    0.4105: real time    0.4105
     EDDAV:  cpu time    3.3677: real time    3.7611
       DOS:  cpu time    0.0008: real time    0.0008
    CHARGE:  cpu time    0.2593: real time    0.2595
    MIXING:  cpu time    0.0051: real time    0.0051
    --------------------------------------------
      LOOP:  cpu time    4.1472: real time    4.5410

 eigenvalue-minimisations  :  2448
 total energy-change (2. order) : 0.4887574E-03  (-0.5361779E-04)
 number of electron     143.9999930 magnetization 
 augmentation part       15.2333849 magnetization 

 Broyden mixing:
  rms(total) = 0.35022E-02    rms(broyden)= 0.35021E-02
  rms(prec ) = 0.40163E-02
  weight for this iteration     100.00

 eigenvalues of (default mixing * dielectric matrix)
  average eigenvalue GAMMA=   1.3474
  2.8132  2.3506  2.0987  2.0987  1.1766  1.1766  0.8911  0.8911  0.7467  0.7467
  0.5754  0.6033

 Free energy of the ion-electron system (eV)
  ---------------------------------------------------
  alpha Z        PSCENC =       168.09871896
  Ewald energy   TEWEN  =    556797.68073218
  -Hartree energ DENC   =   -565557.84147886
  -exchange      EXHF   =         0.00000000
  -V(xc)+E(xc)   XCENC  =       368.94977563
  PAW double counting   =     16571.90955788   -16369.13568452
  entropy T*S    EENTRO =        -0.00000000
  eigenvalues    EBANDS =     -2146.72532942
  atomic energy  EATOM  =      9973.51372603
  Solvation  Ediel_sol  =         0.00000000
  ---------------------------------------------------
  free energy    TOTEN  =      -193.54998212 eV

  energy without entropy =     -193.54998212  energy(sigma->0) =     -193.54998212


--------------------------------------------------------------------------------------------------------




--------------------------------------- Iteration      1(  18)  ---------------------------------------


    POTLOK:  cpu time    0.0984: real time    0.0985
    SETDIJ:  cpu time    0.3999: real time    0.3998
     EDDAV:  cpu time    4.6816: real time    5.1480
       DOS:  cpu time    0.0009: real time    0.0013
    CHARGE:  cpu time    0.2576: real time    0.3025
    MIXING:  cpu time    0.0165: real time    0.0212
    --------------------------------------------
      LOOP:  cpu time    5.4550: real time    5.9713

 eigenvalue-minimisations  :  2848
 total energy-change (2. order) :-0.1363675E-05  (-0.2175693E-04)
 number of electron     143.9999930 magnetization 
 augmentation part       15.2302173 magnetization 

 Broyden mixing:
  rms(total) = 0.41931E-02    rms(broyden)= 0.41929E-02
  rms(prec ) = 0.45111E-02
  weight for this iteration     100.00

 eigenvalues of (default mixing * dielectric matrix)
  average eigenvalue GAMMA=   1.4084
  3.6135  2.5917  2.0022  2.0022  1.2944  1.2944  0.9725  0.9725  0.7964  0.7964
  0.7962  0.5778  0.5997

 Free energy of the ion-electron system (eV)
  ---------------------------------------------------
  alpha Z        PSCENC =       168.09871896
  Ewald energy   TEWEN  =    556797.68073218
  -Hartree energ DENC   =   -565562.79905243
  -exchange      EXHF   =         0.00000000
  -V(xc)+E(xc)   XCENC  =       368.94359700
  PAW double counting   =     16571.94931278   -16369.23311445
  entropy T*S    EENTRO =        -0.00000000
  eigenvalues    EBANDS =     -2141.70390355
  atomic energy  EATOM  =      9973.51372603
  Solvation  Ediel_sol  =         0.00000000
  ---------------------------------------------------
  free energy    TOTEN  =      -193.54998349 eV

  energy without entropy =     -193.54998349  energy(sigma->0) =     -193.54998349


--------------------------------------------------------------------------------------------------------




--------------------------------------- Iteration      1(  19)  ---------------------------------------


    POTLOK:  cpu time    0.0971: real time    0.1186
    SETDIJ:  cpu time    0.3984: real time    0.4454
     EDDAV:  cpu time    3.2923: real time    3.2934
       DOS:  cpu time    0.0017: real time    0.0017
    CHARGE:  cpu time    0.2692: real time    0.2692
    MIXING:  cpu time    0.0062: real time    0.0062
    --------------------------------------------
      LOOP:  cpu time    4.0650: real time    4.1344

 eigenvalue-minimisations  :  2448
 total energy-change (2. order) :-0.7421443E-04  (-0.2579685E-04)
 number of electron     143.9999930 magnetization 
 augmentation part       15.2312730 magnetization 

 Broyden mixing:
  rms(total) = 0.24667E-02    rms(broyden)= 0.24667E-02
  rms(prec ) = 0.27463E-02
  weight for this iteration     100.00

 eigenvalues of (default mixing * dielectric matrix)
  average eigenvalue GAMMA=   1.5415
  5.1937  2.8425  2.2662  1.8162  1.8162  1.0345  1.0345  1.0690  0.8086  0.8086
  0.8568  0.8568  0.5768  0.6005

 Free energy of the ion-electron system (eV)
  ---------------------------------------------------
  alpha Z        PSCENC =       168.09871896
  Ewald energy   TEWEN  =    556797.68073218
  -Hartree energ DENC   =   -565571.30304040
  -exchange      EXHF   =         0.00000000
  -V(xc)+E(xc)   XCENC  =       368.95490691
  PAW double counting   =     16570.25980366   -16367.56044195
  entropy T*S    EENTRO =        -0.00000000
  eigenvalues    EBANDS =     -2133.19446308
  atomic energy  EATOM  =      9973.51372603
  Solvation  Ediel_sol  =         0.00000000
  ---------------------------------------------------
  free energy    TOTEN  =      -193.55005770 eV

  energy without entropy =     -193.55005770  energy(sigma->0) =     -193.55005770


--------------------------------------------------------------------------------------------------------




--------------------------------------- Iteration      1(  20)  ---------------------------------------


    POTLOK:  cpu time    0.1115: real time    0.1116
    SETDIJ:  cpu time    0.4341: real time    0.4341
     EDDAV:  cpu time    3.3091: real time    3.3111
       DOS:  cpu time    0.0010: real time    0.0012
    CHARGE:  cpu time    0.4360: real time    0.4382
    MIXING:  cpu time    0.0159: real time    0.0159
    --------------------------------------------
      LOOP:  cpu time    4.3076: real time    4.3121

 eigenvalue-minimisations  :  2208
 total energy-change (2. order) :-0.2121882E-03  (-0.1827233E-04)
 number of electron     143.9999930 magnetization 
 augmentation part       15.2319493 magnetization 

 Broyden mixing:
  rms(total) = 0.17723E-02    rms(broyden)= 0.17723E-02
  rms(prec ) = 0.19518E-02
  weight for this iteration     100.00

 eigenvalues of (default mixing * dielectric matrix)
  average eigenvalue GAMMA=   1.6981
  7.0753  2.6294  2.6294  2.6150  1.5433  1.2107  1.2107  1.0142  1.0142  0.8106
  0.8106  0.9044  0.8275  0.5769  0.6001

 Free energy of the ion-electron system (eV)
  ---------------------------------------------------
  alpha Z        PSCENC =       168.09871896
  Ewald energy   TEWEN  =    556797.68073218
  -Hartree energ DENC   =   -565579.20294910
  -exchange      EXHF   =         0.00000000
  -V(xc)+E(xc)   XCENC  =       368.96230520
  PAW double counting   =     16569.72241255   -16367.02508000
  entropy T*S    EENTRO =        -0.00000000
  eigenvalues    EBANDS =     -2125.30013571
  atomic energy  EATOM  =      9973.51372603
  Solvation  Ediel_sol  =         0.00000000
  ---------------------------------------------------
  free energy    TOTEN  =      -193.55026989 eV

  energy without entropy =     -193.55026989  energy(sigma->0) =     -193.55026989


--------------------------------------------------------------------------------------------------------




--------------------------------------- Iteration      1(  21)  ---------------------------------------


    POTLOK:  cpu time    0.1478: real time    0.1481
    SETDIJ:  cpu time    0.3857: real time    0.3856
     EDDAV:  cpu time    2.9107: real time    2.9118
       DOS:  cpu time    0.0008: real time    0.0008
    CHARGE:  cpu time    0.2614: real time    0.2615
    MIXING:  cpu time    0.0062: real time    0.0062
    --------------------------------------------
      LOOP:  cpu time    3.7124: real time    3.7140

 eigenvalue-minimisations  :  2256
 total energy-change (2. order) :-0.2124071E-03  (-0.1326717E-04)
 number of electron     143.9999930 magnetization 
 augmentation part       15.2333005 magnetization 

 Broyden mixing:
  rms(total) = 0.16520E-02    rms(broyden)= 0.16519E-02
  rms(prec ) = 0.17319E-02
[...]
     26     -21.0854      2.00000
     27     -14.8452      2.00000
     28     -14.8452      2.00000
     29     -14.7042      2.00000
     30     -14.7042      2.00000
     31      -9.6232      2.00000
     32      -9.6232      2.00000
     33      -9.5982      2.00000
     34      -9.5982      2.00000
     35      -9.5583      2.00000
     36      -9.5583      2.00000
     37      -9.4407      2.00000
     38      -9.4407      2.00000
     39      -8.8258      2.00000
     40      -8.8258      2.00000
     41      -8.7802      2.00000
     42      -8.7802      2.00000
     43      -8.7304      2.00000
     44      -8.7304      2.00000
     45      -8.2710      2.00000
     46      -8.2710      2.00000
     47      -8.2699      2.00000
     48      -8.2699      2.00000
     49      -7.3685      2.00000
     50      -7.3685      2.00000
     51      -7.3216      2.00000
     52      -7.3216      2.00000
     53      -7.0239      2.00000
     54      -7.0239      2.00000
     55      -6.2409      2.00000
     56      -6.2409      2.00000
     57      -6.2021      2.00000
     58      -6.2021      2.00000
     59      -5.8742      2.00000
     60      -5.8742      2.00000
     61      -5.8669      2.00000
     62      -5.8669      2.00000
     63      -5.6525      2.00000
     64      -5.6525      2.00000
     65      -5.3447      2.00000
     66      -5.3447      2.00000
     67      -5.2566      2.00000
     68      -5.2566      2.00000
     69      -4.9860      2.00000
     70      -4.9860      2.00000
     71      -4.7648      2.00000
     72      -4.7648      2.00000
     73      -2.0645      0.00000
     74      -2.0645      0.00000
     75      -2.0643      0.00000
     76      -2.0643      0.00000
     77      -1.1532      0.00000
     78      -1.1532      0.00000
     79      -1.1011      0.00000
     80      -1.1011      0.00000
     81      -1.0087      0.00000
     82      -1.0087      0.00000
     83      -1.0078      0.00000
     84      -1.0078      0.00000
     85      -0.9143      0.00000
     86      -0.9143      0.00000
     87       0.2535      0.00000
     88       0.2535      0.00000
     89       1.0525      0.00000
     90       1.0525      0.00000
     91       1.9997      0.00000
     92       1.9997      0.00000
     93       2.1930      0.00000
     94       2.2060      0.00000
     95       2.2642      0.00000
     96       2.2680      0.00000


--------------------------------------------------------------------------------------------------------


 soft charge-density along one line, spin component           1
         0         1         2         3         4         5         6         7         8         9
 total charge-density along one line
 
 pseudopotential strength for first ion, spin component:           1
-25.316  -6.777  -0.000  -0.009   0.000  -0.000  -0.009   0.000
 -6.777   0.270  -0.000  -0.023   0.000  -0.000  -0.022   0.000
 -0.000  -0.000 -22.209   0.000  -0.000 -21.128   0.000  -0.000
 -0.009  -0.023   0.000 -22.251  -0.000   0.000 -21.168  -0.000
  0.000   0.000  -0.000  -0.000 -22.209  -0.000  -0.000 -21.128
 -0.000  -0.000 -21.128   0.000  -0.000 -20.106   0.000  -0.000
 -0.009  -0.022   0.000 -21.168  -0.000   0.000 -20.144  -0.000
  0.000   0.000  -0.000  -0.000 -21.128  -0.000  -0.000 -20.106
 -0.000  -0.000   0.000  -0.000  -0.000   0.000  -0.000  -0.000
  0.000   0.000  -0.007  -0.000  -0.000  -0.006  -0.000  -0.000
 -0.015  -0.011   0.000  -0.007  -0.000   0.000  -0.007  -0.000
 -0.000  -0.000  -0.000   0.000  -0.007  -0.000   0.000  -0.006
 -0.000  -0.000   0.000   0.000   0.000   0.000   0.000   0.000
 -0.000  -0.000   0.000  -0.000  -0.000   0.000  -0.000  -0.000
  0.000   0.000  -0.009  -0.000  -0.000  -0.009  -0.000  -0.000
 -0.020  -0.014   0.000  -0.010  -0.000   0.000  -0.009  -0.000
 -0.000  -0.000  -0.000   0.000  -0.009  -0.000   0.000  -0.009
 -0.000  -0.000   0.000   0.000   0.000   0.000   0.000   0.000
  0.000   0.000   0.000  -0.000  -0.000   0.000  -0.000  -0.000
 -0.000  -0.000  -0.000  -0.000  -0.000  -0.000  -0.000  -0.000
  0.000   0.000  -0.003  -0.000  -0.000  -0.003  -0.000  -0.000
  0.000  -0.000  -0.000  -0.005   0.000  -0.000  -0.005   0.000
  0.000   0.000  -0.000  -0.000  -0.003  -0.000  -0.000  -0.003
  0.000  -0.000  -0.000  -0.000  -0.000  -0.000  -0.000  -0.000
 -0.000  -0.000   0.000  -0.000  -0.000   0.000  -0.000  -0.000
 total augmentation occupancy for first ion, spin component:           1
  1.995  -0.049  -0.000  -0.053   0.000   0.000   0.056   0.000   0.000   0.000  -0.037   0.000   0.000   0.000   0.000   0.033
 -0.049   0.800   0.000   0.400   0.000   0.000  -0.382   0.000   0.000   0.000  -0.422   0.000   0.000   0.000   0.000   0.250
  0.000   0.000  20.309   0.000   0.000 -18.016  -0.000   0.000   0.000   1.512   0.000   0.000   0.000   0.000  -1.083   0.000
 -0.053   0.400   0.000  14.896  -0.000  -0.000 -12.592   0.000   0.000   0.000   2.365   0.000   0.000   0.000   0.000  -1.384
 -0.000   0.000   0.000   0.000  20.309   0.000  -0.000 -18.016   0.000   0.000   0.000   1.512   0.000   0.000   0.000  -0.000
  0.000  -0.000 -18.016  -0.000   0.000  17.695   0.000   0.000   0.000  -1.537  -0.000   0.000   0.000   0.000   1.112   0.000
  0.056  -0.382   0.000 -12.592  -0.000  -0.000  12.264   0.000   0.000   0.000  -2.416   0.000   0.000   0.000   0.000   1.430
  0.000   0.000   0.000  -0.000 -18.016   0.000   0.000  17.695   0.000   0.000   0.000  -1.537   0.000   0.000   0.000   0.000
  0.000   0.000   0.000   0.000  -0.000   0.000   0.000  -0.000   6.080   0.000   0.000   0.000   0.000  -3.589  -0.000   0.000
  0.000  -0.000   1.512   0.000   0.000  -1.537   0.000   0.000   0.000   5.961   0.000   0.000  -0.000  -0.000  -3.624   0.000
 -0.037  -0.422   0.000   2.365   0.000   0.000  -2.416  -0.000   0.000   0.000   2.401   0.000   0.000   0.000   0.000  -1.431
  0.000   0.000   0.000   0.000   1.512   0.000   0.000  -1.537   0.000   0.000   0.000   5.961   0.000   0.000   0.000   0.000
  0.000   0.000   0.000   0.000   0.000   0.000   0.000   0.000  -0.000  -0.000   0.000   0.000   5.067   0.000   0.000   0.000
  0.000   0.000   0.000   0.000   0.000   0.000   0.000   0.000  -3.589   0.000   0.000   0.000   0.000   2.132   0.000   0.000
  0.000   0.000  -1.083   0.000   0.000   1.112   0.000   0.000   0.000  -3.624   0.000   0.000   0.000   0.000   2.216   0.000
  0.033   0.250   0.000  -1.384  -0.000   0.000   1.430   0.000   0.000   0.000  -1.431   0.000   0.000   0.000   0.000   0.858
 -0.000  -0.000   0.000   0.000  -1.083   0.000  -0.000   1.112   0.000   0.000   0.000  -3.624   0.000   0.000   0.000  -0.000
  0.000   0.000   0.000   0.000   0.000  -0.000   0.000   0.000   0.000   0.000   0.000  -0.000  -3.084   0.000   0.000   0.000
  0.000   0.000  -0.112   0.000   0.000   0.114   0.000   0.000   0.000   0.175   0.000   0.000   0.000   0.000  -0.102   0.000
  0.000   0.000   0.000   0.000   0.000   0.000   0.000   0.000   0.140   0.000   0.000   0.000  -0.000  -0.074   0.000   0.000
  0.000   0.000  -0.009   0.000   0.000   0.016   0.000   0.000   0.000  -0.191   0.000   0.000  -0.000  -0.000   0.116   0.000
  0.000  -0.010   0.000   0.403  -0.000   0.000  -0.393   0.000   0.000   0.000   0.035  -0.000   0.000   0.000   0.000  -0.017
  0.000   0.000   0.000  -0.000  -0.009   0.000  -0.000   0.016   0.000   0.000  -0.000  -0.191   0.000  -0.000   0.000   0.000
  0.000   0.000   0.000   0.000   0.000  -0.000   0.000   0.000   0.000   0.000   0.000  -0.000  -0.309   0.000  -0.000   0.000
  0.000   0.000   0.000   0.000   0.112   0.000   0.000  -0.114   0.000   0.000  -0.000  -0.175   0.000   0.000  -0.000   0.000


------------------------ aborting loop because EDIFF is reached ----------------------------------------


 


 total charge     
 
# of ion       s       p       d       f       tot
--------------------------------------------------
    1        2.159   6.376   0.919   0.100   9.554
    2        2.159   6.376   0.919   0.100   9.554
    3        2.160   6.402   0.964   0.105   9.631
    4        2.160   6.402   0.964   0.105   9.631
    5        0.578   1.041   2.739   0.000   4.358
    6        0.578   1.041   2.739   0.000   4.358
    7        0.578   1.035   2.742   0.000   4.354
    8        0.578   1.035   2.742   0.000   4.354
    9        1.317   2.439   0.000   0.000   3.756
   10        1.317   2.439   0.000   0.000   3.756
   11        1.318   2.461   0.000   0.000   3.779
   12        1.318   2.461   0.000   0.000   3.779
   13        1.576   3.430   0.000   0.000   5.005
   14        1.575   3.410   0.000   0.000   4.984
   15        1.552   3.537   0.000   0.000   5.088
   16        1.552   3.537   0.000   0.000   5.088
   17        1.575   3.410   0.000   0.000   4.984
   18        1.576   3.430   0.000   0.000   5.005
   19        1.575   3.410   0.000   0.000   4.985
   20        1.552   3.536   0.000   0.000   5.087
   21        1.552   3.536   0.000   0.000   5.087
   22        1.575   3.410   0.000   0.000   4.985
--------------------------------------------------
tot         31.877  74.151  14.727   0.410 121.165

 
    CHARGE:  cpu time    0.3303: real time    0.3305
    FORLOC:  cpu time    0.0066: real time    0.0066
    FORNL :  cpu time    0.3603: real time    0.3603
    STRESS:  cpu time    1.0671: real time    1.0735
    FORCOR:  cpu time    0.0874: real time    0.0874
    FORHAR:  cpu time    0.0256: real time    0.0257
    MIXING:  cpu time    0.1123: real time    0.1123
    OFIELD:  cpu time    0.0001: real time    0.0001

  FORCE on cell =-STRESS in cart. coord.  units (eV):
  Direction    XX          YY          ZZ          XY          YZ          ZX
  --------------------------------------------------------------------------------------
  Alpha Z   168.09872   168.09872   168.09872
  Ewald  562442.55592562442.55592************     0.00000    -0.00000     0.00000
  Hartree564254.25831564254.25831************    -0.00000    -0.00000    -0.00000
  E(xc)    -619.29175  -619.29175  -620.36845    -0.00000    -0.00000     0.00000
  Local  ************************************    -0.00000     0.00000     0.00000
  n-local  -157.65737  -162.12091  -160.77812    -5.54878     0.00000    -0.00000
  augment    76.92224    76.92224    76.89015    -0.00000     0.00000     0.00000
  Kinetic  2249.90432  2304.92461  2282.03714    -1.12320    -0.00000    -0.00000
  Fock        0.00000     0.00000     0.00000     0.00000     0.00000     0.00000
  -------------------------------------------------------------------------------------
  Total      -3.24872    -3.24872     0.23106     0.00000    -0.00000     0.00000
  in kB      -4.03257    -4.03257     0.28682     0.00000    -0.00000     0.00000
  external pressure =       -2.59 kB  Pullay stress =        0.00 kB


 VOLUME and BASIS-vectors are now :
 -----------------------------------------------------------------------------
  energy-cutoff  :      520.00
  volume of cell :     1290.75
      direct lattice vectors                 reciprocal lattice vectors
     3.770023000  0.000000000  0.000000000     0.265250371  0.000000000  0.000000000
     0.000000000  3.770023000  0.000000000     0.000000000  0.265250371  0.000000000
     0.000000000  0.000000000 90.814054000     0.000000000  0.000000000  0.011011512

  length of vectors
     3.770023000  3.770023000 90.814054000     0.265250371  0.265250371  0.011011512


 FORCES acting on ions
    electron-ion (+dipol)            ewald-force                    non-local-force                 convergence-correction
 -----------------------------------------------------------------------------------------------
   0.963E-13 0.238E-12 -.645E+04   0.113E-13 0.204E-13 0.645E+04   0.000E+00 -.162E-26 0.253E+01   -.514E-14 0.153E-13 0.957E-04
   -.375E-14 -.810E-13 0.645E+04   0.113E-13 0.204E-13 -.645E+04   0.000E+00 0.000E+00 -.253E+01   0.171E-13 -.308E-13 -.957E-04
   -.292E-14 -.597E-12 0.112E+04   0.113E-13 0.213E-13 -.112E+04   0.000E+00 0.155E-24 0.427E+00   0.183E-15 0.466E-13 -.252E-03
   0.841E-13 0.689E-12 -.112E+04   0.813E-14 0.163E-13 0.112E+04   -.129E-25 -.155E-24 -.427E+00   0.535E-14 -.485E-13 0.252E-03
   0.714E-14 -.233E-12 0.172E+04   0.558E-14 0.233E-14 -.172E+04   0.000E+00 0.000E+00 0.421E-01   -.943E-14 0.758E-14 -.257E-04
   0.811E-14 0.204E-12 -.172E+04   0.558E-14 0.233E-14 0.172E+04   0.129E-25 0.000E+00 -.421E-01   0.119E-13 -.835E-14 0.257E-04
   -.313E-14 -.197E-12 -.103E+04   0.686E-14 0.234E-14 0.103E+04   0.000E+00 0.162E-26 0.338E-01   -.812E-14 0.443E-14 0.263E-04
   0.411E-14 0.278E-12 0.103E+04   0.671E-14 0.236E-14 -.103E+04   0.000E+00 -.162E-26 -.338E-01   0.814E-14 -.547E-14 -.263E-04
   -.383E-14 0.711E-12 0.383E+04   -.188E-14 0.598E-14 -.383E+04   0.000E+00 0.000E+00 0.470E+00   -.753E-14 -.195E-13 -.730E-04
   0.160E-14 -.965E-12 -.383E+04   -.188E-14 0.598E-14 0.383E+04   0.000E+00 0.000E+00 -.470E+00   0.296E-14 0.188E-13 0.730E-04
   -.289E-14 0.833E-13 -.289E+03   0.432E-14 0.103E-13 0.289E+03   -.310E-24 0.000E+00 0.442E+00   -.767E-14 -.129E-13 0.107E-03
   -.113E-13 -.178E-13 0.289E+03   -.328E-14 0.596E-14 -.289E+03   0.194E-24 0.000E+00 -.442E+00   0.862E-14 0.149E-13 -.107E-03
   -.370E-14 -.222E-12 -.206E+04   0.208E-13 0.425E-14 0.206E+04   0.129E-25 0.000E+00 -.154E+00   -.245E-13 -.247E-13 0.115E-04
   -.157E-14 0.903E-13 0.273E+04   0.604E-14 -.107E-13 -.273E+04   -.620E-24 0.000E+00 -.158E+01   0.201E-13 0.481E-14 -.377E-04
   -.753E-14 0.407E-12 -.273E+04   0.642E-14 -.365E-14 0.273E+04   0.517E-25 0.000E+00 0.158E+01   -.412E-13 -.232E-14 0.377E-04
   0.146E-12 -.724E-12 0.273E+04   -.145E-13 0.148E-14 -.273E+04   0.000E+00 0.000E+00 -.158E+01   0.485E-13 0.124E-15 -.377E-04
   0.131E-12 -.528E-13 -.273E+04   -.369E-13 -.691E-14 0.273E+04   0.672E-24 0.000E+00 0.158E+01   -.280E-13 -.607E-14 0.377E-04
   0.151E-12 0.504E-12 0.206E+04   -.127E-14 0.288E-14 -.206E+04   -.258E-25 0.000E+00 0.154E+00   0.214E-13 0.324E-13 -.115E-04
   0.147E-12 -.294E-12 -.139E+04   -.204E-13 -.111E-13 0.140E+04   0.000E+00 0.000E+00 -.148E+01   0.129E-13 -.125E-13 0.616E-04
   0.151E-12 -.633E-12 0.139E+04   0.187E-14 -.218E-14 -.140E+04   -.207E-24 0.517E-25 0.148E+01   -.219E-13 0.153E-13 -.616E-04
   -.926E-14 0.822E-12 -.139E+04   -.199E-13 0.800E-15 0.140E+04   0.155E-24 -.129E-24 -.148E+01   0.118E-13 -.113E-13 0.616E-04
   0.771E-14 0.415E-12 0.139E+04   -.419E-13 -.816E-14 -.140E+04   0.000E+00 0.000E+00 0.148E+01   -.148E-13 0.102E-13 -.616E-04
 -----------------------------------------------------------------------------------------------
   0.885E-12 0.426E-12 0.779E-10   -.357E-13 0.828E-13 -.227E-12   -.775E-25 -.792E-25 0.133E-14   0.754E-15 -.121E-13 -.395E-10
 
 
 POSITION                                       TOTAL-FORCE (eV/Angst)
 -----------------------------------------------------------------------------------
      1.88501      1.88501     54.87957         0.000000      0.000000     -0.558061
      0.00000      0.00000     35.93449         0.000000     -0.000000      0.558061
      0.00000      0.00000     43.52781         0.000000     -0.000000      0.003779
      1.88501      1.88501     47.28624         0.000000      0.000000     -0.003779
      1.88501      1.88501     37.91232         0.000000      0.000000     -0.227213
      0.00000      0.00000     52.90173        -0.000000     -0.000000      0.227213
      0.00000      0.00000     49.26408         0.000000      0.000000     -0.005608
      1.88501      1.88501     41.54997         0.000000     -0.000000      0.005608
      1.88501      1.88501     35.05895         0.000000     -0.000000     -0.388044
      0.00000      0.00000     55.75511         0.000000      0.000000      0.388044
      0.00000      0.00000     46.41070         0.000000      0.000000      0.001388
      1.88501      1.88501     44.40335         0.000000     -0.000000     -0.001388
      0.00000      0.00000     51.08291         0.000000     -0.000000     -0.048243
      0.00000      1.88501     37.43528         0.000000      0.000000     -0.002397
      0.00000      1.88501     53.37878         0.000000      0.000000      0.002397
      1.88501      0.00000     37.43528         0.000000      0.000000     -0.002397
      1.88501      0.00000     53.37878         0.000000      0.000000      0.002397
      1.88501      1.88501     39.73115         0.000000      0.000000      0.048243
      1.88501      0.00000     48.78704         0.000000     -0.000000      0.003373
      1.88501      0.00000     42.02702         0.000000      0.000000     -0.003373
      0.00000      1.88501     48.78704        -0.000000      0.000000      0.003373
      0.00000      1.88501     42.02702         0.000000      0.000000     -0.003373
 -----------------------------------------------------------------------------------
    total drift:                                0.000000      0.000000      0.000000


--------------------------------------------------------------------------------------------------------



  FREE ENERGIE OF THE ION-ELECTRON SYSTEM (eV)
  ---------------------------------------------------
  free  energy   TOTEN  =      -193.55142942 eV

  energy  without entropy=     -193.55142942  energy(sigma->0) =     -193.55142942
 


--------------------------------------------------------------------------------------------------------


    POTLOK:  cpu time    0.5132: real time    0.5134


--------------------------------------------------------------------------------------------------------


     LOOP+:  cpu time  160.8441: real time  166.4097
    4ORBIT:  cpu time    0.0000: real time    0.0000
 


 total charge     
 
# of ion       s       p       d       f       tot
--------------------------------------------------
    1        2.159   6.376   0.919   0.100   9.554
    2        2.159   6.376   0.919   0.100   9.554
    3        2.160   6.402   0.964   0.105   9.631
    4        2.160   6.402   0.964   0.105   9.631
    5        0.578   1.041   2.739   0.000   4.358
    6        0.578   1.041   2.739   0.000   4.358
    7        0.578   1.035   2.742   0.000   4.354
    8        0.578   1.035   2.742   0.000   4.354
    9        1.317   2.439   0.000   0.000   3.756
   10        1.317   2.439   0.000   0.000   3.756
   11        1.318   2.461   0.000   0.000   3.779
   12        1.318   2.461   0.000   0.000   3.779
   13        1.576   3.430   0.000   0.000   5.005
   14        1.575   3.410   0.000   0.000   4.984
   15        1.552   3.537   0.000   0.000   5.088
   16        1.552   3.537   0.000   0.000   5.088
   17        1.575   3.410   0.000   0.000   4.984
   18        1.576   3.430   0.000   0.000   5.005
   19        1.575   3.410   0.000   0.000   4.985
   20        1.552   3.536   0.000   0.000   5.087
   21        1.552   3.536   0.000   0.000   5.087
   22        1.575   3.410   0.000   0.000   4.985
--------------------------------------------------
tot         31.877  74.151  14.727   0.410 121.165

 

 total amount of memory used by VASP MPI-rank0    52678. kBytes
=======================================================================

   base      :      30000. kBytes
   nonlr-proj:       5133. kBytes
   fftplans  :       4572. kBytes
   grid      :       8613. kBytes
   one-center:         90. kBytes
   wavefun   :       4270. kBytes
 
  
  
 General timing and accounting informations for this job:
 ========================================================
  
                  Total CPU time used (sec):      192.318
                            User time (sec):      180.619
                          System time (sec):       11.699
                         Elapsed time (sec):      199.200
  
                   Maximum memory used (kb):      143004.
                   Average memory used (kb):           0.
  
                          Minor page faults:        71000
                          Major page faults:            0
                 Voluntary context switches:        49771
