 vasp.5.4.4.18Apr17-6-g9f103f2a35 (build Jun 20 2017 18:00:50) complex          
  
 executed on             LinuxIFC date 2020.05.13  10:30:28
 running on  256 total cores
 distrk:  each k-point on  128 cores,    2 groups
 distr:  one band on NCORES_PER_BAND=   8 cores,   16 groups


--------------------------------------------------------------------------------------------------------


 INCAR:
 POTCAR:    PAW_PBE Y_sv 25May2007                
 POTCAR:    PAW_PBE Ti 08Apr2002                  
 POTCAR:    PAW_PBE S 06Sep2000                   
 POTCAR:    PAW_PBE O 08Apr2002                   

 ----------------------------------------------------------------------------- 
|                                                                             |
|           W    W    AA    RRRRR   N    N  II  N    N   GGGG   !!!           |
|           W    W   A  A   R    R  NN   N  II  NN   N  G    G  !!!           |
|           W    W  A    A  R    R  N N  N  II  N N  N  G       !!!           |
|           W WW W  AAAAAA  RRRRR   N  N N  II  N  N N  G  GGG   !            |
|           WW  WW  A    A  R   R   N   NN  II  N   NN  G    G                |
|           W    W  A    A  R    R  N    N  II  N    N   GGGG   !!!           |
|                                                                             |
|      You have enabled k-point parallelism (KPAR>1).                         |
|      This developmental code was originally  written by Paul Kent at ORNL,  |
|      and carefully double checked in Vienna.                                |
|      GW as well as linear response parallelism added by Martijn Marsman     |
|      and Georg Kresse.                                                      |
|      Carefully verify results versus KPAR=1.                                |
|      Report problems to Paul Kent and Vienna.                               |
|                                                                             |
 ----------------------------------------------------------------------------- 

 POTCAR:    PAW_PBE Y_sv 25May2007                
   VRHFIN =Y: 4s4p5s4d                                                          
   LEXCH  = PE                                                                  
   EATOM  =  1046.9140 eV,   76.9460 Ry                                         
                                                                                
   TITEL  = PAW_PBE Y_sv 25May2007                                              
   LULTRA =        F    use ultrasoft PP ?                                      
   IUNSCR =        1    unscreen: 0-lin 1-nonlin 2-no                           
   RPACOR =    2.200    partial core radius                                     
   POMASS =   88.906; ZVAL   =   11.000    mass and valenz                      
   RCORE  =    2.800    outmost cutoff radius                                   
   RWIGS  =    3.430; RWIGS  =    1.815    wigner-seitz radius (au A)           
   ENMAX  =  202.626; ENMIN  =  151.970 eV                                      
   RCLOC  =    2.212    cutoff for local pot                                    
   LCOR   =        T    correct aug charges                                     
   LPAW   =        T    paw PP                                                  
   EAUG   =  470.889                                                            
   DEXC   =    0.000                                                            
   RMAX   =    2.863    core radius for proj-oper                               
   RAUG   =    1.300    factor for augmentation sphere                          
   RDEP   =    2.926    radius for radial grids                                 
   RDEPT  =    2.280    core radius for aug-charge                              
                                                                                
   Atomic configuration                                                         
   11 entries                                                                   
     n  l   j            E        occ.                                          
     1  0  0.50    -16863.0720   2.0000                                         
     2  0  0.50     -2309.2881   2.0000                                         
     2  1  1.50     -2055.5536   6.0000                                         
     3  0  0.50      -367.1837   2.0000                                         
     3  1  1.50      -284.8912   6.0000                                         
     3  2  2.50      -149.4324  10.0000                                         
     4  0  0.50       -46.3345   2.0000                                         
     5  0  0.50        -3.6387   1.0000                                         
     4  1  1.50       -26.3769   6.0000                                         
     4  2  2.50        -1.6291   2.0000                                         
     4  3  2.50        -1.3606   0.0000                                         
   Description                                                                  
     l       E           TYP  RCUT    TYP  RCUT                                 
     0    -46.3344714     23  2.600                                             
     0     -3.6387002     23  2.700                                             
     1    -26.3769044     23  2.600                                             
     1    -27.7374870     23  2.600                                             
     2     -1.6291019     23  2.600                                             
     2      0.1354037     23  2.600                                             
     3     -1.3605826     23  2.800                                             
  local pseudopotential read in
  partial core-charges read in
  partial kinetic energy density read in
  atomic valenz-charges read in
  non local Contribution for L=           0  read in
    real space projection operators read in
  non local Contribution for L=           0  read in
    real space projection operators read in
  non local Contribution for L=           1  read in
    real space projection operators read in
  non local Contribution for L=           1  read in
    real space projection operators read in
  non local Contribution for L=           2  read in
    real space projection operators read in
  non local Contribution for L=           2  read in
    real space projection operators read in
  non local Contribution for L=           3  read in
    real space projection operators read in
    PAW grid and wavefunctions read in
 
   number of l-projection  operators is LMAX  =           7
   number of lm-projection operators is LMMAX =          25
 
 POTCAR:    PAW_PBE Ti 08Apr2002                  
   VRHFIN =Ti: d3 s1                                                            
   LEXCH  = PE                                                                  
   EATOM  =    94.7928 eV,    6.9671 Ry                                         
                                                                                
   TITEL  = PAW_PBE Ti 08Apr2002                                                
   LULTRA =        F    use ultrasoft PP ?                                      
   IUNSCR =        1    unscreen: 0-lin 1-nonlin 2-no                           
   RPACOR =    2.200    partial core radius                                     
   POMASS =   47.880; ZVAL   =    4.000    mass and valenz                      
   RCORE  =    2.800    outmost cutoff radius                                   
   RWIGS  =    2.500; RWIGS  =    1.323    wigner-seitz radius (au A)           
   ENMAX  =  178.330; ENMIN  =  133.747 eV                                      
   RCLOC  =    2.215    cutoff for local pot                                    
   LCOR   =        T    correct aug charges                                     
   LPAW   =        T    paw PP                                                  
   EAUG   =  328.883                                                            
   DEXC   =    0.000                                                            
   RMAX   =    2.868    core radius for proj-oper                               
   RAUG   =    1.300    factor for augmentation sphere                          
   RDEP   =    2.885    radius for radial grids                                 
   RDEPT  =    2.320    core radius for aug-charge                              
                                                                                
   Atomic configuration                                                         
    9 entries                                                                   
     n  l   j            E        occ.                                          
     1  0  0.50     -4865.3608   2.0000                                         
     2  0  0.50      -533.1367   2.0000                                         
     2  1  1.50      -440.5031   6.0000                                         
     3  0  0.50       -59.3186   2.0000                                         
     3  1  1.50       -35.7012   6.0000                                         
     3  2  2.50        -1.9157   3.0000                                         
     4  0  0.50        -3.7291   1.0000                                         
     4  1  1.50        -4.0817   0.0000                                         
     4  3  2.50        -1.3606   0.0000                                         
   Description                                                                  
     l       E           TYP  RCUT    TYP  RCUT                                 
     2     -1.9156924     23  2.800                                             
     2     -0.4062961     23  2.800                                             
     0     -3.7290832     23  2.800                                             
     0     20.4087390     23  2.800                                             
     1     -5.4423304     23  2.800                                             
  local pseudopotential read in
  partial core-charges read in
  partial kinetic energy density read in
  atomic valenz-charges read in
  non local Contribution for L=           2  read in
    real space projection operators read in
  non local Contribution for L=           2  read in
    real space projection operators read in
  non local Contribution for L=           0  read in
    real space projection operators read in
  non local Contribution for L=           0  read in
    real space projection operators read in
  non local Contribution for L=           1  read in
    real space projection operators read in
    PAW grid and wavefunctions read in
 
   number of l-projection  operators is LMAX  =           5
   number of lm-projection operators is LMMAX =          15
 
 POTCAR:    PAW_PBE S 06Sep2000                   
   VRHFIN =S : s2p4                                                             
   LEXCH  = PE                                                                  
   EATOM  =   276.8230 eV,   20.3459 Ry                                         
                                                                                
   TITEL  = PAW_PBE S 06Sep2000                                                 
   LULTRA =        F    use ultrasoft PP ?                                      
   IUNSCR =        1    unscreen: 0-lin 1-nonlin 2-no                           
   RPACOR =    1.500    partial core radius                                     
   POMASS =   32.066; ZVAL   =    6.000    mass and valenz                      
   RCORE  =    1.900    outmost cutoff radius                                   
   RWIGS  =    2.200; RWIGS  =    1.164    wigner-seitz radius (au A)           
   ENMAX  =  258.689; ENMIN  =  194.016 eV                                      
   ICORE  =        2    local potential                                         
   LCOR   =        T    correct aug charges                                     
   LPAW   =        T    paw PP                                                  
   EAUG   =  335.092                                                            
   DEXC   =    0.000                                                            
   RMAX   =    1.942    core radius for proj-oper                               
   RAUG   =    1.300    factor for augmentation sphere                          
   RDEP   =    1.954    radius for radial grids                                 
   RDEPT  =    1.744    core radius for aug-charge                              
                                                                                
   Atomic configuration                                                         
    6 entries                                                                   
     n  l   j            E        occ.                                          
     1  0  0.50     -2405.8406   2.0000                                         
     2  0  0.50      -211.7007   2.0000                                         
     2  1  1.50      -156.4958   6.0000                                         
     3  0  0.50       -17.2562   2.0000                                         
     3  1  0.50        -7.0085   4.0000                                         
     3  2  1.50        -6.8029   0.0000                                         
   Description                                                                  
     l       E           TYP  RCUT    TYP  RCUT                                 
     0    -17.2561641     23  1.900                                             
     0    -15.8743224     23  1.900                                             
     1     -7.0085400     23  1.900                                             
     1     -2.7779785     23  1.900                                             
     2     -6.8029130     23  1.900                                             
  local pseudopotential read in
  partial core-charges read in
  partial kinetic energy density read in
  atomic valenz-charges read in
  non local Contribution for L=           0  read in
    real space projection operators read in
  non local Contribution for L=           0  read in
    real space projection operators read in
  non local Contribution for L=           1  read in
    real space projection operators read in
  non local Contribution for L=           1  read in
    real space projection operators read in
    PAW grid and wavefunctions read in
 
   number of l-projection  operators is LMAX  =           4
   number of lm-projection operators is LMMAX =           8
 
 POTCAR:    PAW_PBE O 08Apr2002                   
   VRHFIN =O: s2p4                                                              
   LEXCH  = PE                                                                  
   EATOM  =   432.3788 eV,   31.7789 Ry                                         
                                                                                
   TITEL  = PAW_PBE O 08Apr2002                                                 
   LULTRA =        F    use ultrasoft PP ?                                      
   IUNSCR =        1    unscreen: 0-lin 1-nonlin 2-no                           
   RPACOR =    1.200    partial core radius                                     
   POMASS =   16.000; ZVAL   =    6.000    mass and valenz                      
   RCORE  =    1.520    outmost cutoff radius                                   
   RWIGS  =    1.550; RWIGS  =    0.820    wigner-seitz radius (au A)           
   ENMAX  =  400.000; ENMIN  =  300.000 eV                                      
   ICORE  =        2    local potential                                         
   LCOR   =        T    correct aug charges                                     
   LPAW   =        T    paw PP                                                  
   EAUG   =  605.392                                                            
   DEXC   =    0.000                                                            
   RMAX   =    1.553    core radius for proj-oper                               
   RAUG   =    1.300    factor for augmentation sphere                          
   RDEP   =    1.550    radius for radial grids                                 
   RDEPT  =    1.329    core radius for aug-charge                              
                                                                                
   Atomic configuration                                                         
    4 entries                                                                   
     n  l   j            E        occ.                                          
     1  0  0.50      -514.6923   2.0000                                         
     2  0  0.50       -23.9615   2.0000                                         
     2  1  0.50        -9.0305   4.0000                                         
     3  2  1.50        -9.5241   0.0000                                         
   Description                                                                  
     l       E           TYP  RCUT    TYP  RCUT                                 
     0    -23.9615318     23  1.200                                             
     0     -9.5240782     23  1.200                                             
     1     -9.0304911     23  1.520                                             
     1      8.1634956     23  1.520                                             
     2     -9.5240782      7  1.500                                             
  local pseudopotential read in
  partial core-charges read in
  partial kinetic energy density read in
  kinetic energy density of atom read in
  atomic valenz-charges read in
  non local Contribution for L=           0  read in
    real space projection operators read in
  non local Contribution for L=           0  read in
    real space projection operators read in
  non local Contribution for L=           1  read in
    real space projection operators read in
  non local Contribution for L=           1  read in
    real space projection operators read in
    PAW grid and wavefunctions read in
 
   number of l-projection  operators is LMAX  =           4
   number of lm-projection operators is LMMAX =           8
 
 Optimization of the real space projectors (new method)

 maximal supplied QI-value         = 13.42
 optimisation between [QCUT,QGAM] = [ 11.67, 23.35] = [ 38.16,152.62] Ry 
 Optimized for a Real-space Cutoff    1.68 Angstroem

   l    n(q)    QCUT    max X(q) W(low)/X(q) W(high)/X(q)  e(spline) 
   0     12    11.673    14.902    0.22E-04    0.24E-05    0.52E-07
   0     12    11.673     9.294    0.34E-04    0.58E-05    0.89E-07
   1     11    11.673    69.520    0.10E-04    0.47E-04    0.49E-06
   1     11    11.673    72.085    0.10E-04    0.48E-04    0.50E-06
   2     11    11.673    62.934    0.94E-04    0.14E-04    0.82E-06
   2     11    11.673    49.749    0.91E-04    0.13E-04    0.79E-06
   3     10    11.673     8.311    0.92E-04    0.21E-04    0.59E-06
 Optimization of the real space projectors (new method)

 maximal supplied QI-value         = 13.42
 optimisation between [QCUT,QGAM] = [ 11.67, 23.35] = [ 38.16,152.62] Ry 
 Optimized for a Real-space Cutoff    1.58 Angstroem

   l    n(q)    QCUT    max X(q) W(low)/X(q) W(high)/X(q)  e(spline) 
   2     10    11.673    49.363    0.16E-03    0.28E-03    0.91E-06
   2     10    11.673    47.669    0.16E-03    0.27E-03    0.88E-06
   0     11    11.673    26.374    0.54E-04    0.10E-03    0.52E-06
   0     11    11.673    11.549    0.41E-04    0.83E-04    0.43E-06
   1     11    11.673     9.492    0.36E-04    0.11E-04    0.17E-06
 Optimization of the real space projectors (new method)

 maximal supplied QI-value         = 19.84
 optimisation between [QCUT,QGAM] = [ 11.51, 23.22] = [ 37.09,150.92] Ry 
 Optimized for a Real-space Cutoff    1.21 Angstroem

   l    n(q)    QCUT    max X(q) W(low)/X(q) W(high)/X(q)  e(spline) 
   0      8    11.508   187.594    0.96E-04    0.18E-03    0.54E-07
   0      8    11.508   164.243    0.96E-04    0.18E-03    0.54E-07
   1      8    11.508    67.533    0.18E-03    0.65E-04    0.94E-07
   1      8    11.508    50.729    0.18E-03    0.63E-04    0.92E-07
 Optimization of the real space projectors (new method)

 maximal supplied QI-value         = 24.76
 optimisation between [QCUT,QGAM] = [ 11.64, 23.27] = [ 37.91,151.63] Ry 
 Optimized for a Real-space Cutoff    1.14 Angstroem

   l    n(q)    QCUT    max X(q) W(low)/X(q) W(high)/X(q)  e(spline) 
   0      8    11.635    20.381    0.10E-03    0.33E-03    0.24E-06
   0      8    11.635    15.268    0.11E-03    0.35E-03    0.26E-06
   1      7    11.635     5.964    0.24E-03    0.31E-03    0.30E-06
   1      7    11.635     5.382    0.22E-03    0.25E-03    0.26E-06

 ----------------------------------------------------------------------------- 
|                                                                             |
|  ADVICE TO THIS USER RUNNING 'VASP/VAMP'   (HEAR YOUR MASTER'S VOICE ...):  |
|                                                                             |
|      You enforced a specific xc-type in the INCAR file,                     |
|      a different type was found on the POTCAR file                          |
|          I HOPE YOU KNOW, WHAT YOU ARE  DOING                               |
|                                                                             |
 ----------------------------------------------------------------------------- 

  PAW_PBE Y_sv 25May2007                :
 energy of atom  1       EATOM=-1046.9140
 kinetic energy error for atom=    0.0008 (will be added to EATOM!!)
  PAW_PBE Ti 08Apr2002                  :
 energy of atom  2       EATOM=  -94.7928
 kinetic energy error for atom=    0.0002 (will be added to EATOM!!)
  PAW_PBE S 06Sep2000                   :
 energy of atom  3       EATOM= -276.8230
 kinetic energy error for atom=    0.0016 (will be added to EATOM!!)
  PAW_PBE O 08Apr2002                   :
 energy of atom  4       EATOM= -432.3788
 kinetic energy error for atom=    0.0208 (will be added to EATOM!!)
 
 
 POSCAR: Y12 Ti12 S12 O30                        
  positions in direct lattice
  No initial velocities read in
 exchange correlation table for  LEXCH =       14
   RHO(1)=    0.500       N(1)  =     2000
   RHO(2)=  100.500       N(2)  =     4000
 


--------------------------------------------------------------------------------------------------------


 ion  position               nearest neighbor table
   1  0.500  0.500  0.354-  39 2.41  41 2.41  41 2.41  39 2.41  26 2.81  26 2.81  26 2.81  26 2.81
                            29 2.88  14 3.32  14 3.32  14 3.32  14 3.32
   2  0.000  0.000  0.146-  38 2.41  40 2.41  38 2.41  40 2.41  25 2.81  25 2.81  25 2.81  25 2.81
                            13 3.32  13 3.32  13 3.32  13 3.32
   3  0.000  0.000  0.229-  44 2.41  46 2.41  46 2.41  44 2.41  28 2.81  28 2.81  28 2.81  28 2.81
                            27 2.88  16 3.32  16 3.32  16 3.32  16 3.32
   4  0.500  0.500  0.271-  43 2.41  45 2.41  43 2.41  45 2.41  27 2.81  27 2.81  27 2.81  27 2.81
                            28 2.88  15 3.32  15 3.32  15 3.32  15 3.32
   5  0.500  0.500  0.604-  49 2.41  51 2.41  51 2.41  49 2.41  30 2.81  30 2.81  30 2.81  30 2.81
                            33 2.88  18 3.32  18 3.32  18 3.32  18 3.32
   6  0.000  0.000  0.396-  48 2.41  50 2.41  48 2.41  50 2.41  29 2.81  29 2.81  29 2.81  29 2.81
                            26 2.88  17 3.32  17 3.32  17 3.32  17 3.32
   7  0.000  0.000  0.479-  54 2.41  56 2.41  56 2.41  54 2.41  32 2.81  32 2.81  32 2.81  32 2.81
                            31 2.88  20 3.32  20 3.32  20 3.32  20 3.32
   8  0.500  0.500  0.521-  53 2.41  55 2.41  53 2.41  55 2.41  31 2.81  31 2.81  31 2.81  31 2.81
                            32 2.88  19 3.32  19 3.32  19 3.32  19 3.32
   9  0.500  0.500  0.854-  59 2.41  61 2.41  61 2.41  59 2.41  34 2.81  34 2.81  34 2.81  34 2.81
                            22 3.32  22 3.32  22 3.32  22 3.32
  10  0.000  0.000  0.646-  58 2.41  60 2.41  58 2.41  60 2.41  33 2.81  33 2.81  33 2.81  33 2.81
                            30 2.88  21 3.32  21 3.32  21 3.32  21 3.32
  11  0.000  0.000  0.729-  64 2.41  66 2.41  66 2.41  64 2.41  36 2.81  36 2.81  36 2.81  36 2.81
                            35 2.88  24 3.32  24 3.32  24 3.32  24 3.32
  12  0.500  0.500  0.771-  63 2.41  65 2.41  63 2.41  65 2.41  35 2.81  35 2.81  35 2.81  35 2.81
                            36 2.88  23 3.32  23 3.32  23 3.32  23 3.32
  13  0.500  0.500  0.167-  42 1.82  40 1.94  38 1.94  40 1.94  38 1.94  25 2.85   2 3.32   2 3.32
                             2 3.32   2 3.32
  14  0.000  0.000  0.333-  37 1.82  39 1.94  41 1.94  39 1.94  41 1.94  26 2.85   1 3.32   1 3.32
                             1 3.32   1 3.32
  15  0.000  0.000  0.292-  37 1.82  43 1.94  45 1.94  45 1.94  43 1.94  27 2.85   4 3.32   4 3.32
                             4 3.32   4 3.32
  16  0.500  0.500  0.208-  42 1.82  44 1.94  46 1.94  44 1.94  46 1.94  28 2.85   3 3.32   3 3.32
                             3 3.32   3 3.32
  17  0.500  0.500  0.417-  52 1.82  50 1.94  48 1.94  50 1.94  48 1.94  29 2.85   6 3.32   6 3.32
                             6 3.32   6 3.32
  18  0.000  0.000  0.583-  47 1.82  49 1.94  51 1.94  49 1.94  51 1.94  30 2.85   5 3.32   5 3.32
                             5 3.32   5 3.32
  19  0.000  0.000  0.542-  47 1.82  53 1.94  55 1.94  55 1.94  53 1.94  31 2.85   8 3.32   8 3.32
                             8 3.32   8 3.32
  20  0.500  0.500  0.458-  52 1.82  54 1.94  56 1.94  54 1.94  56 1.94  32 2.85   7 3.32   7 3.32
                             7 3.32   7 3.32
  21  0.500  0.500  0.667-  62 1.82  60 1.94  58 1.94  60 1.94  58 1.94  33 2.85  10 3.32  10 3.32
                            10 3.32  10 3.32
  22  0.000  0.000  0.833-  57 1.82  59 1.94  61 1.94  59 1.94  61 1.94  34 2.85   9 3.32   9 3.32
                             9 3.32   9 3.32
  23  0.000  0.000  0.792-  57 1.82  63 1.94  65 1.94  65 1.94  63 1.94  35 2.85  12 3.32  12 3.32
                            12 3.32  12 3.32
  24  0.500  0.500  0.708-  62 1.82  64 1.94  66 1.94  64 1.94  66 1.94  36 2.85  11 3.32  11 3.32
                            11 3.32  11 3.32
  25  0.500  0.500  0.136-   2 2.81   2 2.81   2 2.81   2 2.81  13 2.85
  26  0.000  0.000  0.364-   1 2.81   1 2.81   1 2.81   1 2.81  14 2.85   6 2.88
  27  0.000  0.000  0.261-   4 2.81   4 2.81   4 2.81   4 2.81  15 2.85   3 2.88
  28  0.500  0.500  0.239-   3 2.81   3 2.81   3 2.81   3 2.81  16 2.85   4 2.88
  29  0.500  0.500  0.386-   6 2.81   6 2.81   6 2.81   6 2.81  17 2.85   1 2.88
  30  0.000  0.000  0.614-   5 2.81   5 2.81   5 2.81   5 2.81  18 2.85  10 2.88
  31  0.000  0.000  0.511-   8 2.81   8 2.81   8 2.81   8 2.81  19 2.85   7 2.88
  32  0.500  0.500  0.489-   7 2.81   7 2.81   7 2.81   7 2.81  20 2.85   8 2.88
  33  0.500  0.500  0.636-  10 2.81  10 2.81  10 2.81  10 2.81  21 2.85   5 2.88
  34  0.000  0.000  0.864-   9 2.81   9 2.81   9 2.81   9 2.81  22 2.85
  35  0.000  0.000  0.761-  12 2.81  12 2.81  12 2.81  12 2.81  23 2.85  11 2.88
  36  0.500  0.500  0.739-  11 2.81  11 2.81  11 2.81  11 2.81  24 2.85  12 2.88
  37  0.000  0.000  0.312-  14 1.82  15 1.82
  38  0.000  0.500  0.162-  13 1.94  13 1.94   2 2.41   2 2.41
  39  0.000  0.500  0.338-  14 1.94  14 1.94   1 2.41   1 2.41
  40  0.500  0.000  0.162-  13 1.94  13 1.94   2 2.41   2 2.41
  41  0.500  0.000  0.338-  14 1.94  14 1.94   1 2.41   1 2.41
  42  0.500  0.500  0.188-  13 1.82  16 1.82
  43  0.500  0.000  0.287-  15 1.94  15 1.94   4 2.41   4 2.41
  44  0.500  0.000  0.213-  16 1.94  16 1.94   3 2.41   3 2.41
  45  0.000  0.500  0.287-  15 1.94  15 1.94   4 2.41   4 2.41
  46  0.000  0.500  0.213-  16 1.94  16 1.94   3 2.41   3 2.41
  47  0.000  0.000  0.562-  18 1.82  19 1.82
  48  0.000  0.500  0.412-  17 1.94  17 1.94   6 2.41   6 2.41
  49  0.000  0.500  0.588-  18 1.94  18 1.94   5 2.41   5 2.41
  50  0.500  0.000  0.412-  17 1.94  17 1.94   6 2.41   6 2.41
  51  0.500  0.000  0.588-  18 1.94  18 1.94   5 2.41   5 2.41
  52  0.500  0.500  0.438-  17 1.82  20 1.82
  53  0.500  0.000  0.537-  19 1.94  19 1.94   8 2.41   8 2.41
  54  0.500  0.000  0.463-  20 1.94  20 1.94   7 2.41   7 2.41
  55  0.000  0.500  0.537-  19 1.94  19 1.94   8 2.41   8 2.41
  56  0.000  0.500  0.463-  20 1.94  20 1.94   7 2.41   7 2.41
  57  0.000  0.000  0.812-  22 1.82  23 1.82
  58  0.000  0.500  0.662-  21 1.94  21 1.94  10 2.41  10 2.41
  59  0.000  0.500  0.838-  22 1.94  22 1.94   9 2.41   9 2.41
  60  0.500  0.000  0.662-  21 1.94  21 1.94  10 2.41  10 2.41
  61  0.500  0.000  0.838-  22 1.94  22 1.94   9 2.41   9 2.41
  62  0.500  0.500  0.688-  21 1.82  24 1.82
  63  0.500  0.000  0.787-  23 1.94  23 1.94  12 2.41  12 2.41
  64  0.500  0.000  0.713-  24 1.94  24 1.94  11 2.41  11 2.41
  65  0.000  0.500  0.787-  23 1.94  23 1.94  12 2.41  12 2.41
  66  0.000  0.500  0.713-  24 1.94  24 1.94  11 2.41  11 2.41
 
  LATTYP: Found a simple tetragonal cell.
 ALAT       =     3.7700230000
 C/A-ratio  =    24.0884615293
  
  Lattice vectors:
  
 A1 = (   3.7700230000,   0.0000000000,   0.0000000000)
 A2 = (   0.0000000000,   3.7700230000,   0.0000000000)
 A3 = (   0.0000000000,   0.0000000000,  90.8140540000)


Analysis of symmetry for initial positions (statically):
=====================================================================
 Subroutine PRICEL returns:
 Original cell was already a primitive cell.
 

 Routine SETGRP: Setting up the symmetry group for a 
 simple tetragonal supercell.


 Subroutine GETGRP returns: Found 16 space group operations
 (whereof  8 operations were pure point group operations)
 out of a pool of 16 trial point group operations.


The static configuration has the point symmetry C_4v.
 The point group associated with its full space group is D_4h.


Analysis of symmetry for dynamics (positions and initial velocities):
=====================================================================
 Subroutine PRICEL returns:
 Original cell was already a primitive cell.
 

 Routine SETGRP: Setting up the symmetry group for a 
 simple tetragonal supercell.


 Subroutine GETGRP returns: Found 16 space group operations
 (whereof  8 operations were pure point group operations)
 out of a pool of 16 trial point group operations.


The dynamic configuration has the point symmetry C_4v.
 The point group associated with its full space group is D_4h.


 Subroutine INISYM returns: Found 16 space group operations
 (whereof  8 operations are pure point group operations),
 and found     1 'primitive' translations

 
 
 KPOINTS: Automatic mesh                          

Automatic generation of k-mesh.
Space group operators:
 irot       det(A)        alpha          n_x          n_y          n_z        tau_x        tau_y        tau_z
    1     1.000000     0.000000     1.000000     0.000000     0.000000     0.000000     0.000000     0.000000
    2     1.000000    90.000000     0.000000     0.000000    -1.000000     0.000000     0.000000     0.000000
    3     1.000000   180.000000     0.000000     0.000000     1.000000     0.000000     0.000000     0.000000
    4     1.000000    90.000000     0.000000     0.000000     1.000000     0.000000     0.000000     0.000000
    5    -1.000000   180.000000     0.000000     1.000000     0.000000     0.000000     0.000000     0.000000
    6    -1.000000   180.000000     0.707107     0.707107     0.000000     0.000000     0.000000     0.000000
    7    -1.000000   180.000000     1.000000     0.000000     0.000000     0.000000     0.000000     0.000000
    8    -1.000000   180.000000     0.707107    -0.707107     0.000000     0.000000     0.000000     0.000000
    9    -1.000000     0.000000     1.000000     0.000000     0.000000     0.500000     0.500000     0.000000
   10    -1.000000    90.000000     0.000000     0.000000    -1.000000     0.500000     0.500000     0.000000
   11    -1.000000   180.000000     0.000000     0.000000     1.000000     0.500000     0.500000     0.000000
   12    -1.000000    90.000000     0.000000     0.000000     1.000000     0.500000     0.500000     0.000000
   13     1.000000   180.000000     0.000000     1.000000     0.000000     0.500000     0.500000     0.000000
   14     1.000000   180.000000     0.707107     0.707107     0.000000     0.500000     0.500000     0.000000
   15     1.000000   180.000000     1.000000     0.000000     0.000000     0.500000     0.500000     0.000000
   16     1.000000   180.000000     0.707107    -0.707107     0.000000     0.500000     0.500000     0.000000
 
 Subroutine IBZKPT returns following result:
 ===========================================
 
 Found     10 irreducible k-points:
 
 Following reciprocal coordinates:
            Coordinates               Weight
  0.000000  0.000000  0.000000      1.000000
  0.166667  0.000000  0.000000      4.000000
  0.333333  0.000000  0.000000      4.000000
  0.500000  0.000000  0.000000      2.000000
  0.166667  0.166667  0.000000      4.000000
  0.333333  0.166667  0.000000      8.000000
  0.500000  0.166667  0.000000      4.000000
  0.333333  0.333333  0.000000      4.000000
  0.500000  0.333333  0.000000      4.000000
  0.500000  0.500000  0.000000      1.000000
 
 Following cartesian coordinates:
            Coordinates               Weight
  0.000000  0.000000  0.000000      1.000000
  0.044208  0.000000  0.000000      4.000000
  0.088417  0.000000  0.000000      4.000000
  0.132625  0.000000  0.000000      2.000000
  0.044208  0.044208  0.000000      4.000000
  0.088417  0.044208  0.000000      8.000000
  0.132625  0.044208  0.000000      4.000000
  0.088417  0.088417  0.000000      4.000000
  0.132625  0.088417  0.000000      4.000000
  0.132625  0.132625  0.000000      1.000000
 


--------------------------------------------------------------------------------------------------------




 Dimension of arrays:
   k-points           NKPTS =     10   k-points in BZ     NKDIM =     10   number of bands    NBANDS=    272
   number of dos      NEDOS =   2000   number of ions     NIONS =     66
   non local maximal  LDIM  =      7   non local SUM 2l+1 LMDIM =     25
   total plane-waves  NPLWV = 537824
   max r-space proj   IRMAX =   8267   max aug-charges    IRDMAX=  30235
   dimension x,y,z NGX =    28 NGY =   28 NGZ =  686
   dimension x,y,z NGXF=    56 NGYF=   56 NGZF= 1372
   support grid    NGXF=    56 NGYF=   56 NGZF= 1372
   ions per type =              12  12  12  30
   NGX,Y,Z   is equivalent  to a cutoff of  12.35, 12.35, 12.56 a.u.
   NGXF,Y,Z  is equivalent  to a cutoff of  24.69, 24.69, 25.12 a.u.

 SYSTEM =  Generic Input                           
 POSCAR =  Y12 Ti12 S12 O30                        

 Startparameter for this run:
   NWRITE =      2    write-flag & timer
   PREC   = accura    normal or accurate (medium, high low for compatibility)
   ISTART =      0    job   : 0-new  1-cont  2-samecut
   ICHARG =      2    charge: 1-file 2-atom 10-const
   ISPIN  =      1    spin polarized calculation?
   LNONCOLLINEAR =      F non collinear calculations
   LSORBIT =      F    spin-orbit coupling
   INIWAV =      1    electr: 0-lowe 1-rand  2-diag
   LASPH  =      T    aspherical Exc in radial PAW
   METAGGA=      F    non-selfconsistent MetaGGA calc.

 Electronic Relaxation 1
   ENCUT  =  520.0 eV  38.22 Ry    6.18 a.u.   7.01  7.01168.85*2*pi/ulx,y,z
   ENINI  =  520.0     initial cutoff
   ENAUG  =  605.4 eV  augmentation charge cutoff
   NELM   =    200;   NELMIN=  2; NELMDL=  0     # of ELM steps 
   EDIFF  = 0.1E-05   stopping-criterion for ELM
   LREAL  =      T    real-space projection
   NLSPLINE    = F    spline interpolate recip. space projectors
   LCOMPAT=      F    compatible to vasp.4.4
   GGA_COMPAT  = T    GGA compatible to vasp.4.4-vasp.4.6
   LMAXPAW     = -100 max onsite density
   LMAXMIX     =    2 max onsite mixed and CHGCAR
   VOSKOWN=      0    Vosko Wilk Nusair interpolation
   ROPT   =   -0.00025  -0.00025  -0.00025  -0.00025
 Ionic relaxation
   EDIFFG = -.1E-01   stopping-criterion for IOM
   NSW    =      0    number of steps for IOM
   NBLOCK =      1;   KBLOCK =      1    inner block; outer block 
   IBRION =     -1    ionic relax: 0-MD 1-quasi-New 2-CG
   NFREE  =      0    steps in history (QN), initial steepest desc. (CG)
   ISIF   =      2    stress and relaxation
   IWAVPR =     11    prediction:  0-non 1-charg 2-wave 3-comb
   ISYM   =      2    0-nonsym 1-usesym 2-fastsym
   LCORR  =      T    Harris-Foulkes like correction to forces

   POTIM  = 0.5000    time-step for ionic-motion
   TEIN   =    0.0    initial temperature
   TEBEG  =    0.0;   TEEND  =   0.0 temperature during run
   SMASS  =  -3.00    Nose mass-parameter (am)
   estimated Nose-frequenzy (Omega)   =  0.10E-29 period in steps =****** mass=  -0.325E-27a.u.
   SCALEE = 1.0000    scale energy and forces
   NPACO  =    256;   APACO  = 16.0  distance and # of slots for P.C.
   PSTRESS=    0.0 pullay stress

  Mass of Ions in am
   POMASS =  88.91 47.88 32.07 16.00
  Ionic Valenz
   ZVAL   =  11.00  4.00  6.00  6.00
  Atomic Wigner-Seitz radii
   RWIGS  =  -1.00 -1.00 -1.00 -1.00
  virtual crystal weights 
   VCA    =   1.00  1.00  1.00  1.00
   NELECT =     432.0000    total number of electrons
   NUPDOWN=      -1.0000    fix difference up-down

 DOS related values:
   EMIN   =  10.00;   EMAX   =-10.00  energy-range for DOS
   EFERMI =   0.00
   ISMEAR =     0;   SIGMA  =   0.02  broadening in eV -4-tet -1-fermi 0-gaus

 Electronic relaxation 2 (details)
   IALGO  =     38    algorithm
   LDIAG  =      T    sub-space diagonalisation (order eigenvalues)
   LSUBROT=      F    optimize rotation matrix (better conditioning)
   TURBO    =      0    0=normal 1=particle mesh
   IRESTART =      0    0=no restart 2=restart with 2 vectors
   NREBOOT  =      0    no. of reboots
   NMIN     =      0    reboot dimension
   EREF     =   0.00    reference energy to select bands
   IMIX   =      4    mixing-type and parameters
     AMIX     =   0.40;   BMIX     =  1.00
     AMIX_MAG =   1.60;   BMIX_MAG =  1.00
     AMIN     =   0.05
     WC   =   100.;   INIMIX=   1;  MIXPRE=   1;  MAXMIX= -45

 Intra band minimization:
   WEIMIN = 0.0000     energy-eigenvalue tresh-hold
   EBREAK =  0.92E-09  absolut break condition
   DEPER  =   0.30     relativ break condition  

   TIME   =   0.40     timestep for ELM

  volume/ion in A,a.u.               =      19.56       131.98
  Fermi-wavevector in a.u.,A,eV,Ry     =   1.136639  2.147935 17.578010  1.291947
  Thomas-Fermi vector in A             =   2.273344
 
 Write flags
   LWAVE        =      F    write WAVECAR
   LDOWNSAMPLE  =      F    k-point downsampling of WAVECAR
   LCHARG       =      F    write CHGCAR
   LVTOT        =      F    write LOCPOT, total local potential
   LVHAR        =      T    write LOCPOT, Hartree potential only
   LELF         =      F    write electronic localiz. function (ELF)
   LORBIT       =     11    0 simple, 1 ext, 2 COOP (PROOUT), +10 PAW based schemes


 Dipole corrections
   LMONO  =      F    monopole corrections only (constant potential shift)
   LDIPOL =      F    correct potential (dipole corrections)
   IDIPOL =      0    1-x, 2-y, 3-z, 4-all directions 
   EPSILON=  1.0000000 bulk dielectric constant

 Core level calculations are selected ICORELEVEL =  1
 Exchange correlation treatment:
   GGA     =    PS    GGA type
   LEXCH   =    14    internal setting for exchange type
   VOSKOWN=      0    Vosko Wilk Nusair interpolation
   LHFCALC =     F    Hartree Fock is set to
   LHFONE  =     F    Hartree Fock one center treatment
   AEXX    =    0.0000 exact exchange contribution

 Linear response parameters
   LEPSILON=     F    determine dielectric tensor
   LRPA    =     F    only Hartree local field effects (RPA)
   LNABLA  =     F    use nabla operator in PAW spheres
   LVEL    =     F    velocity operator in full k-point grid
   LINTERFAST=   F  fast interpolation
   KINTER  =     0    interpolate to denser k-point grid
   CSHIFT  =0.1000    complex shift for real part using Kramers Kronig
   OMEGAMAX=  -1.0    maximum frequency
   DEG_THRESHOLD= 0.2000000E-02 threshold for treating states as degnerate
   RTIME   =   -0.100 relaxation time in fs
  (WPLASMAI=    0.000 imaginary part of plasma frequency in eV, 0.658/RTIME)
   DFIELD  = 0.0000000 0.0000000 0.0000000 field for delta impulse in time
 
 Orbital magnetization related:
   ORBITALMAG=     F  switch on orbital magnetization
   LCHIMAG   =     F  perturbation theory with respect to B field
   DQ        =  0.001000  dq finite difference perturbation B field
   LLRAUG    =     F  two centre corrections for induced B field



--------------------------------------------------------------------------------------------------------


 Static calculation
 charge density and potential will be updated during run
 non-spin polarized calculation
 Variant of blocked Davidson
 Davidson routine will perform the subspace rotation
 perform sub-space diagonalisation
    after iterative eigenvector-optimisation
 modified Broyden-mixing scheme, WC =      100.0
 initial mixing is a Kerker type mixing with AMIX =  0.4000 and BMIX =      1.0000
 Hartree-type preconditioning will be used
 using additional bands           56
 real space projection scheme for non local part
 use partial core corrections
 calculate Harris-corrections to forces 
   (improved forces if not selfconsistent)
 use gradient corrections 
 use of overlap-Matrix (Vanderbilt PP)
 Gauss-broadening in eV      SIGMA  =   0.02


--------------------------------------------------------------------------------------------------------


  energy-cutoff  :      520.00
  volume of cell :     1290.75
      direct lattice vectors                 reciprocal lattice vectors
     3.770023000  0.000000000  0.000000000     0.265250371  0.000000000  0.000000000
     0.000000000  3.770023000  0.000000000     0.000000000  0.265250371  0.000000000
     0.000000000  0.000000000 90.814054000     0.000000000  0.000000000  0.011011512

  length of vectors
     3.770023000  3.770023000 90.814054000     0.265250371  0.265250371  0.011011512


 
 k-points in units of 2pi/SCALE and weight: Automatic mesh                          
   0.00000000  0.00000000  0.00000000       0.028
   0.04420840  0.00000000  0.00000000       0.111
   0.08841679  0.00000000  0.00000000       0.111
   0.13262519  0.00000000  0.00000000       0.056
   0.04420840  0.04420840  0.00000000       0.111
   0.08841679  0.04420840  0.00000000       0.222
   0.13262519  0.04420840  0.00000000       0.111
   0.08841679  0.08841679  0.00000000       0.111
   0.13262519  0.08841679  0.00000000       0.111
   0.13262519  0.13262519  0.00000000       0.028
 
 k-points in reciprocal lattice and weights: Automatic mesh                          
   0.00000000  0.00000000  0.00000000       0.028
   0.16666667  0.00000000  0.00000000       0.111
   0.33333333  0.00000000  0.00000000       0.111
   0.50000000  0.00000000  0.00000000       0.056
   0.16666667  0.16666667  0.00000000       0.111
   0.33333333  0.16666667  0.00000000       0.222
   0.50000000  0.16666667  0.00000000       0.111
   0.33333333  0.33333333  0.00000000       0.111
   0.50000000  0.33333333  0.00000000       0.111
   0.50000000  0.50000000  0.00000000       0.028
 
 position of ions in fractional coordinates (direct lattice) 
   0.50000000  0.50000000  0.35430700
   0.00000000  0.00000000  0.14569300
   0.00000000  0.00000000  0.22930700
   0.50000000  0.50000000  0.27069300
   0.50000000  0.50000000  0.60430700
   0.00000000  0.00000000  0.39569300
   0.00000000  0.00000000  0.47930700
   0.50000000  0.50000000  0.52069300
   0.50000000  0.50000000  0.85430700
   0.00000000  0.00000000  0.64569300
   0.00000000  0.00000000  0.72930700
   0.50000000  0.50000000  0.77069300
   0.50000000  0.50000000  0.16747200
   0.00000000  0.00000000  0.33252800
   0.00000000  0.00000000  0.29247200
   0.50000000  0.50000000  0.20752800
   0.50000000  0.50000000  0.41747200
   0.00000000  0.00000000  0.58252800
   0.00000000  0.00000000  0.54247200
   0.50000000  0.50000000  0.45752800
   0.50000000  0.50000000  0.66747200
   0.00000000  0.00000000  0.83252800
   0.00000000  0.00000000  0.79247200
   0.50000000  0.50000000  0.70752800
   0.50000000  0.50000000  0.13605200
   0.00000000  0.00000000  0.36394800
   0.00000000  0.00000000  0.26105200
   0.50000000  0.50000000  0.23894800
   0.50000000  0.50000000  0.38605200
   0.00000000  0.00000000  0.61394800
   0.00000000  0.00000000  0.51105200
   0.50000000  0.50000000  0.48894800
   0.50000000  0.50000000  0.63605200
   0.00000000  0.00000000  0.86394800
   0.00000000  0.00000000  0.76105200
   0.50000000  0.50000000  0.73894800
   0.00000000  0.00000000  0.31250000
   0.00000000  0.50000000  0.16221900
   0.00000000  0.50000000  0.33778100
   0.50000000  0.00000000  0.16221900
   0.50000000  0.00000000  0.33778100
   0.50000000  0.50000000  0.18750000
   0.50000000  0.00000000  0.28721900
   0.50000000  0.00000000  0.21278100
   0.00000000  0.50000000  0.28721900
   0.00000000  0.50000000  0.21278100
   0.00000000  0.00000000  0.56250000
   0.00000000  0.50000000  0.41221900
   0.00000000  0.50000000  0.58778100
   0.50000000  0.00000000  0.41221900
   0.50000000  0.00000000  0.58778100
   0.50000000  0.50000000  0.43750000
   0.50000000  0.00000000  0.53721900
   0.50000000  0.00000000  0.46278100
   0.00000000  0.50000000  0.53721900
   0.00000000  0.50000000  0.46278100
   0.00000000  0.00000000  0.81250000
   0.00000000  0.50000000  0.66221900
   0.00000000  0.50000000  0.83778100
   0.50000000  0.00000000  0.66221900
   0.50000000  0.00000000  0.83778100
   0.50000000  0.50000000  0.68750000
   0.50000000  0.00000000  0.78721900
   0.50000000  0.00000000  0.71278100
   0.00000000  0.50000000  0.78721900
   0.00000000  0.50000000  0.71278100
 
 position of ions in cartesian coordinates  (Angst):
   1.88501150  1.88501150 32.17605503
   0.00000000  0.00000000 13.23097197
   0.00000000  0.00000000 20.82429828
   1.88501150  1.88501150 24.58272872
   1.88501150  1.88501150 54.87956853
   0.00000000  0.00000000 35.93448547
   0.00000000  0.00000000 43.52781178
   1.88501150  1.88501150 47.28624222
   1.88501150  1.88501150 77.58308203
   0.00000000  0.00000000 58.63799897
   0.00000000  0.00000000 66.23132528
   1.88501150  1.88501150 69.98975572
   1.88501150  1.88501150 15.20881125
   0.00000000  0.00000000 30.19821575
   0.00000000  0.00000000 26.56056800
   1.88501150  1.88501150 18.84645900
   1.88501150  1.88501150 37.91232475
   0.00000000  0.00000000 52.90172925
   0.00000000  0.00000000 49.26408150
   1.88501150  1.88501150 41.54997250
   1.88501150  1.88501150 60.61583825
   0.00000000  0.00000000 75.60524275
   0.00000000  0.00000000 71.96759500
   1.88501150  1.88501150 64.25348600
   1.88501150  1.88501150 12.35543367
   0.00000000  0.00000000 33.05159333
   0.00000000  0.00000000 23.70719042
   1.88501150  1.88501150 21.69983658
   1.88501150  1.88501150 35.05894717
   0.00000000  0.00000000 55.75510683
   0.00000000  0.00000000 46.41070392
   1.88501150  1.88501150 44.40335008
   1.88501150  1.88501150 57.76246067
   0.00000000  0.00000000 78.45862033
   0.00000000  0.00000000 69.11421742
   1.88501150  1.88501150 67.10686358
   0.00000000  0.00000000 28.37939187
   0.00000000  1.88501150 14.73176503
   0.00000000  1.88501150 30.67526197
   1.88501150  0.00000000 14.73176503
   1.88501150  0.00000000 30.67526197
   1.88501150  1.88501150 17.02763512
   1.88501150  0.00000000 26.08352178
   1.88501150  0.00000000 19.32350522
   0.00000000  1.88501150 26.08352178
   0.00000000  1.88501150 19.32350522
   0.00000000  0.00000000 51.08290537
   0.00000000  1.88501150 37.43527853
   0.00000000  1.88501150 53.37877547
   1.88501150  0.00000000 37.43527853
   1.88501150  0.00000000 53.37877547
   1.88501150  1.88501150 39.73114863
   1.88501150  0.00000000 48.78703528
   1.88501150  0.00000000 42.02701872
   0.00000000  1.88501150 48.78703528
   0.00000000  1.88501150 42.02701872
   0.00000000  0.00000000 73.78641887
   0.00000000  1.88501150 60.13879203
   0.00000000  1.88501150 76.08228897
   1.88501150  0.00000000 60.13879203
   1.88501150  0.00000000 76.08228897
   1.88501150  1.88501150 62.43466213
   1.88501150  0.00000000 71.49054878
   1.88501150  0.00000000 64.73053222
   0.00000000  1.88501150 71.49054878
   0.00000000  1.88501150 64.73053222
 


--------------------------------------------------------------------------------------------------------


 k-point  1 :   0.0000 0.0000 0.0000  plane waves:   34349
 k-point  2 :   0.1667 0.0000 0.0000  plane waves:   34534
 k-point  3 :   0.3333 0.0000 0.0000  plane waves:   34652
 k-point  4 :   0.5000 0.0000 0.0000  plane waves:   34774
 k-point  5 :   0.1667 0.1667 0.0000  plane waves:   34716
 k-point  6 :   0.3333 0.1667 0.0000  plane waves:   34766
 k-point  7 :   0.5000 0.1667 0.0000  plane waves:   34856
 k-point  8 :   0.3333 0.3333 0.0000  plane waves:   34854
 k-point  9 :   0.5000 0.3333 0.0000  plane waves:   34852
 k-point 10 :   0.5000 0.5000 0.0000  plane waves:   34836

 maximum and minimum number of plane-waves per node :      4390     4260

 maximum number of plane-waves:     34856
 maximum index in each direction: 
   IXMAX=    7   IYMAX=    7   IZMAX=  168
   IXMIN=   -7   IYMIN=   -7   IZMIN= -168


 real space projection operators:
  total allocation   :      35143.83 KBytes
  max/ min on nodes  :       4975.38       3793.45


 parallel 3D FFT for wavefunctions:
    minimum data exchange during FFTs selected (reduces bandwidth)
 parallel 3D FFT for charge:
    minimum data exchange during FFTs selected (reduces bandwidth)


 total amount of memory used by VASP MPI-rank0    71177. kBytes
=======================================================================

   base      :      30000. kBytes
   nonlr-proj:      15406. kBytes
   fftplans  :       4572. kBytes
   grid      :       8613. kBytes
   one-center:        270. kBytes
   wavefun   :      12316. kBytes
 
     INWAV:  cpu time    0.0000: real time    0.0000
 Broyden mixing: mesh for mixing (old mesh)
   NGX = 15   NGY = 15   NGZ =337
  (NGX  = 56   NGY  = 56   NGZ  =***)
  gives a total of  75825 points

 initial charge density was supplied:
 charge density of overlapping atoms calculated
 number of electron     432.0000000 magnetization 
 keeping initial charge density in first step


--------------------------------------------------------------------------------------------------------


 Maximum index for non-local projection operator         1232
 Maximum index for augmentation-charges         1147 (set IRDMAX)


--------------------------------------------------------------------------------------------------------


 First call to EWALD:  gamma=   0.163
 Maximum number of real-space cells 7x 7x 1
 Maximum number of reciprocal cells 1x 1x19

    FEWALD:  cpu time    0.0223: real time    0.0223


--------------------------------------- Iteration      1(   1)  ---------------------------------------


    POTLOK:  cpu time    0.1244: real time    0.1398
    SETDIJ:  cpu time    0.4143: real time    0.4147
     EDDAV:  cpu time   10.9496: real time   11.0313
       DOS:  cpu time    0.0035: real time    0.0041
    --------------------------------------------
      LOOP:  cpu time   11.4919: real time   11.5899

 eigenvalue-minimisations  :  5600
 total energy-change (2. order) : 0.4735297E+04  (-0.1901052E+05)
 number of electron     432.0000000 magnetization 
 augmentation part      432.0000000 magnetization 

 Free energy of the ion-electron system (eV)
  ---------------------------------------------------
  alpha Z        PSCENC =      1512.88847067
  Ewald energy   TEWEN  =    541587.57234308
  -Hartree energ DENC   =   -570361.36710210
  -exchange      EXHF   =         0.00000000
  -V(xc)+E(xc)   XCENC  =      1068.33338176
  PAW double counting   =     24113.25477224   -23468.81460646
  entropy T*S    EENTRO =        -0.00707843
  eigenvalues    EBANDS =       362.89552797
  atomic energy  EATOM  =     29920.54117810
  Solvation  Ediel_sol  =         0.00000000
  ---------------------------------------------------
  free energy    TOTEN  =      4735.29688684 eV

  energy without entropy =     4735.30396527  energy(sigma->0) =     4735.30042605


--------------------------------------------------------------------------------------------------------




--------------------------------------- Iteration      1(   2)  ---------------------------------------


     EDDAV:  cpu time    9.8547: real time   10.2583
       DOS:  cpu time    0.0019: real time    0.0024
    --------------------------------------------
      LOOP:  cpu time    9.8565: real time   10.2606

 eigenvalue-minimisations  :  5760
 total energy-change (2. order) :-0.4333391E+04  (-0.4042052E+04)
 number of electron     432.0000000 magnetization 
 augmentation part      432.0000000 magnetization 

 Free energy of the ion-electron system (eV)
  ---------------------------------------------------
  alpha Z        PSCENC =      1512.88847067
  Ewald energy   TEWEN  =    541587.57234308
  -Hartree energ DENC   =   -570361.36710210
  -exchange      EXHF   =         0.00000000
  -V(xc)+E(xc)   XCENC  =      1068.33338176
  PAW double counting   =     24113.25477224   -23468.81460646
  entropy T*S    EENTRO =        -0.00633552
  eigenvalues    EBANDS =     -3970.49635182
  atomic energy  EATOM  =     29920.54117810
  Solvation  Ediel_sol  =         0.00000000
  ---------------------------------------------------
  free energy    TOTEN  =       401.90574996 eV

  energy without entropy =      401.91208548  energy(sigma->0) =      401.90891772


--------------------------------------------------------------------------------------------------------




--------------------------------------- Iteration      1(   3)  ---------------------------------------


     EDDAV:  cpu time   11.9680: real time   12.1862
       DOS:  cpu time    0.0012: real time    0.0016
    --------------------------------------------
      LOOP:  cpu time   11.9692: real time   12.1878

 eigenvalue-minimisations  :  7184
 total energy-change (2. order) :-0.1035424E+04  (-0.1005952E+04)
 number of electron     432.0000000 magnetization 
 augmentation part      432.0000000 magnetization 

 Free energy of the ion-electron system (eV)
  ---------------------------------------------------
  alpha Z        PSCENC =      1512.88847067
  Ewald energy   TEWEN  =    541587.57234308
  -Hartree energ DENC   =   -570361.36710210
  -exchange      EXHF   =         0.00000000
  -V(xc)+E(xc)   XCENC  =      1068.33338176
  PAW double counting   =     24113.25477224   -23468.81460646
  entropy T*S    EENTRO =        -0.00000000
  eigenvalues    EBANDS =     -5005.92718141
  atomic energy  EATOM  =     29920.54117810
  Solvation  Ediel_sol  =         0.00000000
  ---------------------------------------------------
  free energy    TOTEN  =      -633.51874411 eV

  energy without entropy =     -633.51874411  energy(sigma->0) =     -633.51874411


--------------------------------------------------------------------------------------------------------




--------------------------------------- Iteration      1(   4)  ---------------------------------------


     EDDAV:  cpu time   13.0642: real time   13.5659
       DOS:  cpu time    0.0025: real time    0.0029
    --------------------------------------------
      LOOP:  cpu time   13.0666: real time   13.5687

 eigenvalue-minimisations  :  7040
 total energy-change (2. order) :-0.6888089E+02  (-0.6851205E+02)
 number of electron     432.0000000 magnetization 
 augmentation part      432.0000000 magnetization 

 Free energy of the ion-electron system (eV)
  ---------------------------------------------------
  alpha Z        PSCENC =      1512.88847067
  Ewald energy   TEWEN  =    541587.57234308
  -Hartree energ DENC   =   -570361.36710210
  -exchange      EXHF   =         0.00000000
  -V(xc)+E(xc)   XCENC  =      1068.33338176
  PAW double counting   =     24113.25477224   -23468.81460646
  entropy T*S    EENTRO =        -0.00000000
  eigenvalues    EBANDS =     -5074.80807592
  atomic energy  EATOM  =     29920.54117810
  Solvation  Ediel_sol  =         0.00000000
  ---------------------------------------------------
  free energy    TOTEN  =      -702.39963863 eV

  energy without entropy =     -702.39963863  energy(sigma->0) =     -702.39963863


--------------------------------------------------------------------------------------------------------




--------------------------------------- Iteration      1(   5)  ---------------------------------------


     EDDAV:  cpu time   14.9573: real time   15.5406
       DOS:  cpu time    0.0014: real time    0.0020
    CHARGE:  cpu time    0.3322: real time    0.3322
    MIXING:  cpu time    0.0028: real time    0.0028
    --------------------------------------------
      LOOP:  cpu time   15.2937: real time   15.8776

 eigenvalue-minimisations  : 10016
 total energy-change (2. order) :-0.6286999E+01  (-0.6281373E+01)
 number of electron     431.9999737 magnetization 
 augmentation part       44.9996925 magnetization 

 Broyden mixing:
  rms(total) = 0.14931E+02    rms(broyden)= 0.14930E+02
  rms(prec ) = 0.14945E+02
  weight for this iteration     100.00

 Free energy of the ion-electron system (eV)
  ---------------------------------------------------
  alpha Z        PSCENC =      1512.88847067
  Ewald energy   TEWEN  =    541587.57234308
  -Hartree energ DENC   =   -570361.36710210
  -exchange      EXHF   =         0.00000000
  -V(xc)+E(xc)   XCENC  =      1068.33338176
  PAW double counting   =     24113.25477224   -23468.81460646
  entropy T*S    EENTRO =        -0.00000000
  eigenvalues    EBANDS =     -5081.09507537
  atomic energy  EATOM  =     29920.54117810
  Solvation  Ediel_sol  =         0.00000000
  ---------------------------------------------------
  free energy    TOTEN  =      -708.68663808 eV

  energy without entropy =     -708.68663808  energy(sigma->0) =     -708.68663808


--------------------------------------------------------------------------------------------------------




--------------------------------------- Iteration      1(   6)  ---------------------------------------


    POTLOK:  cpu time    0.0927: real time    0.0968
    SETDIJ:  cpu time    0.4147: real time    0.4149
     EDDAV:  cpu time   13.8689: real time   14.3167
       DOS:  cpu time    0.0028: real time    0.0032
    CHARGE:  cpu time    0.6480: real time    0.6675
    MIXING:  cpu time    0.0143: real time    0.0170
    --------------------------------------------
      LOOP:  cpu time   15.0413: real time   15.5161

 eigenvalue-minimisations  :  7728
 total energy-change (2. order) : 0.1248598E+03  (-0.7161995E+02)
 number of electron     431.9999811 magnetization 
 augmentation part       49.9382088 magnetization 

 Broyden mixing:
  rms(total) = 0.91428E+01    rms(broyden)= 0.91424E+01
  rms(prec ) = 0.91454E+01
  weight for this iteration     100.00

 eigenvalues of (default mixing * dielectric matrix)
  average eigenvalue GAMMA=   1.1027
  1.1027

 Free energy of the ion-electron system (eV)
  ---------------------------------------------------
  alpha Z        PSCENC =      1512.88847067
  Ewald energy   TEWEN  =    541587.57234308
  -Hartree energ DENC   =   -570945.53456022
  -exchange      EXHF   =         0.00000000
  -V(xc)+E(xc)   XCENC  =      1119.76755401
  PAW double counting   =     32939.01300606   -32327.74681966
  entropy T*S    EENTRO =        -0.00000000
  eigenvalues    EBANDS =     -4390.32803603
  atomic energy  EATOM  =     29920.54117810
  Solvation  Ediel_sol  =         0.00000000
  ---------------------------------------------------
  free energy    TOTEN  =      -583.82686400 eV

  energy without entropy =     -583.82686400  energy(sigma->0) =     -583.82686400


--------------------------------------------------------------------------------------------------------




--------------------------------------- Iteration      1(   7)  ---------------------------------------


    POTLOK:  cpu time    0.0932: real time    0.1094
    SETDIJ:  cpu time    0.4268: real time    0.4454
     EDDAV:  cpu time   10.7271: real time   11.8489
       DOS:  cpu time    0.0012: real time    0.0017
    CHARGE:  cpu time    0.3642: real time    0.3644
    MIXING:  cpu time    0.0191: real time    0.0191
    --------------------------------------------
      LOOP:  cpu time   11.6317: real time   12.7889

 eigenvalue-minimisations  :  7648
 total energy-change (2. order) :-0.7080375E+01  (-0.2234636E+02)
 number of electron     431.9999784 magnetization 
 augmentation part       43.8609389 magnetization 

 Broyden mixing:
  rms(total) = 0.68888E+01    rms(broyden)= 0.68888E+01
  rms(prec ) = 0.68914E+01
  weight for this iteration     100.00

 eigenvalues of (default mixing * dielectric matrix)
  average eigenvalue GAMMA=   1.9557
  0.7191  3.1924

 Free energy of the ion-electron system (eV)
  ---------------------------------------------------
  alpha Z        PSCENC =      1512.88847067
  Ewald energy   TEWEN  =    541587.57234308
  -Hartree energ DENC   =   -570745.19123128
  -exchange      EXHF   =         0.00000000
  -V(xc)+E(xc)   XCENC  =      1100.45508955
  PAW double counting   =     39646.13218886   -39054.00672992
  entropy T*S    EENTRO =        -0.00000000
  eigenvalues    EBANDS =     -4559.29854789
  atomic energy  EATOM  =     29920.54117810
  Solvation  Ediel_sol  =         0.00000000
  ---------------------------------------------------
  free energy    TOTEN  =      -590.90723883 eV

  energy without entropy =     -590.90723883  energy(sigma->0) =     -590.90723883


--------------------------------------------------------------------------------------------------------




--------------------------------------- Iteration      1(   8)  ---------------------------------------


    POTLOK:  cpu time    0.0876: real time    0.0906
    SETDIJ:  cpu time    0.4552: real time    0.4552
     EDDAV:  cpu time   12.8504: real time   12.9831
       DOS:  cpu time    0.0016: real time    0.0021
    CHARGE:  cpu time    0.4095: real time    0.4097
    MIXING:  cpu time    0.0031: real time    0.0031
    --------------------------------------------
      LOOP:  cpu time   13.8075: real time   13.9438

 eigenvalue-minimisations  :  7680
 total energy-change (2. order) : 0.4674292E+01  (-0.7860359E+01)
 number of electron     431.9999799 magnetization 
 augmentation part       49.7408724 magnetization 

 Broyden mixing:
  rms(total) = 0.33588E+01    rms(broyden)= 0.33587E+01
  rms(prec ) = 0.33640E+01
  weight for this iteration     100.00

 eigenvalues of (default mixing * dielectric matrix)
  average eigenvalue GAMMA=   1.3674
  2.3558  1.1310  0.6155

 Free energy of the ion-electron system (eV)
  ---------------------------------------------------
  alpha Z        PSCENC =      1512.88847067
  Ewald energy   TEWEN  =    541587.57234308
  -Hartree energ DENC   =   -570814.35033645
  -exchange      EXHF   =         0.00000000
  -V(xc)+E(xc)   XCENC  =      1109.48779209
  PAW double counting   =     55622.00909245   -55036.46041968
  entropy T*S    EENTRO =        -0.00143713
  eigenvalues    EBANDS =     -4487.91963013
  atomic energy  EATOM  =     29920.54117810
  Solvation  Ediel_sol  =         0.00000000
  ---------------------------------------------------
  free energy    TOTEN  =      -586.23294701 eV

  energy without entropy =     -586.23150988  energy(sigma->0) =     -586.23222844


--------------------------------------------------------------------------------------------------------




--------------------------------------- Iteration      1(   9)  ---------------------------------------


    POTLOK:  cpu time    0.1058: real time    0.1099
    SETDIJ:  cpu time    0.4261: real time    0.4262
     EDDAV:  cpu time   11.6788: real time   12.4597
       DOS:  cpu time    0.0015: real time    0.0021
    CHARGE:  cpu time    0.5862: real time    0.5881
    MIXING:  cpu time    0.0080: real time    0.0080
    --------------------------------------------
      LOOP:  cpu time   12.8063: real time   13.5940

 eigenvalue-minimisations  :  7520
 total energy-change (2. order) : 0.3841291E+01  (-0.3353661E+01)
 number of electron     431.9999789 magnetization 
 augmentation part       45.1884755 magnetization 

 Broyden mixing:
  rms(total) = 0.66455E+00    rms(broyden)= 0.66448E+00
  rms(prec ) = 0.66613E+00
  weight for this iteration     100.00

 eigenvalues of (default mixing * dielectric matrix)
  average eigenvalue GAMMA=   1.3554
  2.5723  1.1617  1.0966  0.5908

 Free energy of the ion-electron system (eV)
  ---------------------------------------------------
  alpha Z        PSCENC =      1512.88847067
  Ewald energy   TEWEN  =    541587.57234308
  -Hartree energ DENC   =   -570792.87347551
  -exchange      EXHF   =         0.00000000
  -V(xc)+E(xc)   XCENC  =      1105.38586527
  PAW double counting   =     50207.76293641   -49615.76294943
  entropy T*S    EENTRO =        -0.00000000
  eigenvalues    EBANDS =     -4507.90602422
  atomic energy  EATOM  =     29920.54117810
  Solvation  Ediel_sol  =         0.00000000
  ---------------------------------------------------
  free energy    TOTEN  =      -582.39165562 eV

  energy without entropy =     -582.39165562  energy(sigma->0) =     -582.39165562


--------------------------------------------------------------------------------------------------------




--------------------------------------- Iteration      1(  10)  ---------------------------------------


    POTLOK:  cpu time    0.1087: real time    0.1103
    SETDIJ:  cpu time    0.4343: real time    0.4345
     EDDAV:  cpu time   13.6228: real time   14.0997
       DOS:  cpu time    0.0014: real time    0.0019
    CHARGE:  cpu time    0.4631: real time    0.4632
    MIXING:  cpu time    0.0147: real time    0.0147
    --------------------------------------------
      LOOP:  cpu time   14.6450: real time   15.1243

 eigenvalue-minimisations  :  7840
 total energy-change (2. order) : 0.2344644E+00  (-0.3593600E+00)
 number of electron     431.9999792 magnetization 
 augmentation part       45.7862797 magnetization 

 Broyden mixing:
  rms(total) = 0.42375E+00    rms(broyden)= 0.42374E+00
  rms(prec ) = 0.42411E+00
  weight for this iteration     100.00

 eigenvalues of (default mixing * dielectric matrix)
  average eigenvalue GAMMA=   1.2473
  1.9570  1.9570  0.8720  0.8720  0.5787

 Free energy of the ion-electron system (eV)
  ---------------------------------------------------
  alpha Z        PSCENC =      1512.88847067
  Ewald energy   TEWEN  =    541587.57234308
  -Hartree energ DENC   =   -570850.96730549
  -exchange      EXHF   =         0.00000000
  -V(xc)+E(xc)   XCENC  =      1108.51933123
  PAW double counting   =     50832.56840361   -50233.21701609
  entropy T*S    EENTRO =        -0.00000000
  eigenvalues    EBANDS =     -4460.06259637
  atomic energy  EATOM  =     29920.54117810
  Solvation  Ediel_sol  =         0.00000000
  ---------------------------------------------------
  free energy    TOTEN  =      -582.15719125 eV

  energy without entropy =     -582.15719125  energy(sigma->0) =     -582.15719125


--------------------------------------------------------------------------------------------------------




--------------------------------------- Iteration      1(  11)  ---------------------------------------


    POTLOK:  cpu time    0.1451: real time    0.1470
    SETDIJ:  cpu time    0.4855: real time    0.4857
     EDDAV:  cpu time   13.1355: real time   13.1605
       DOS:  cpu time    0.0020: real time    0.0027
    CHARGE:  cpu time    0.5664: real time    0.5665
    MIXING:  cpu time    0.0040: real time    0.0040
    --------------------------------------------
      LOOP:  cpu time   14.3384: real time   14.3664

 eigenvalue-minimisations  :  7504
 total energy-change (2. order) : 0.1968586E-01  (-0.4646225E-01)
 number of electron     431.9999791 magnetization 
 augmentation part       45.5707726 magnetization 

 Broyden mixing:
  rms(total) = 0.12401E+00    rms(broyden)= 0.12400E+00
  rms(prec ) = 0.12442E+00
  weight for this iteration     100.00

 eigenvalues of (default mixing * dielectric matrix)
  average eigenvalue GAMMA=   1.2873
  2.2470  1.7889  1.1325  1.1325  0.8453  0.5778

 Free energy of the ion-electron system (eV)
  ---------------------------------------------------
  alpha Z        PSCENC =      1512.88847067
  Ewald energy   TEWEN  =    541587.57234308
  -Hartree energ DENC   =   -570864.14700039
  -exchange      EXHF   =         0.00000000
  -V(xc)+E(xc)   XCENC  =      1108.39234920
  PAW double counting   =     50128.65756489   -49525.85570378
  entropy T*S    EENTRO =        -0.00000000
  eigenvalues    EBANDS =     -4450.18670717
  atomic energy  EATOM  =     29920.54117810
  Solvation  Ediel_sol  =         0.00000000
  ---------------------------------------------------
  free energy    TOTEN  =      -582.13750539 eV

  energy without entropy =     -582.13750539  energy(sigma->0) =     -582.13750539


--------------------------------------------------------------------------------------------------------




--------------------------------------- Iteration      1(  12)  ---------------------------------------


    POTLOK:  cpu time    0.0859: real time    0.0900
    SETDIJ:  cpu time    0.4230: real time    0.4230
     EDDAV:  cpu time   12.7053: real time   14.1467
       DOS:  cpu time    0.0014: real time    0.0020
    CHARGE:  cpu time    0.3613: real time    0.3615
    MIXING:  cpu time    0.0127: real time    0.0127
    --------------------------------------------
      LOOP:  cpu time   13.5896: real time   15.0358

 eigenvalue-minimisations  :  7392
 total energy-change (2. order) : 0.3439941E-02  (-0.1325427E-01)
 number of electron     431.9999791 magnetization 
 augmentation part       45.6562637 magnetization 

 Broyden mixing:
  rms(total) = 0.62345E-01    rms(broyden)= 0.62335E-01
  rms(prec ) = 0.62630E-01
  weight for this iteration     100.00

 eigenvalues of (default mixing * dielectric matrix)
  average eigenvalue GAMMA=   1.3120
  2.2278  2.2278  1.5167  0.9199  0.9199  0.5764  0.7957

 Free energy of the ion-electron system (eV)
  ---------------------------------------------------
  alpha Z        PSCENC =      1512.88847067
  Ewald energy   TEWEN  =    541587.57234308
  -Hartree energ DENC   =   -570881.87658565
  -exchange      EXHF   =         0.00000000
  -V(xc)+E(xc)   XCENC  =      1108.41760693
  PAW double counting   =     50304.75612075   -49698.35497356
  entropy T*S    EENTRO =        -0.00000000
  eigenvalues    EBANDS =     -4436.07822578
  atomic energy  EATOM  =     29920.54117810
  Solvation  Ediel_sol  =         0.00000000
  ---------------------------------------------------
  free energy    TOTEN  =      -582.13406545 eV

  energy without entropy =     -582.13406545  energy(sigma->0) =     -582.13406545


--------------------------------------------------------------------------------------------------------




--------------------------------------- Iteration      1(  13)  ---------------------------------------


    POTLOK:  cpu time    0.0982: real time    0.1003
    SETDIJ:  cpu time    0.4536: real time    0.4536
     EDDAV:  cpu time   14.2687: real time   14.2776
       DOS:  cpu time    0.0030: real time    0.0037
    CHARGE:  cpu time    0.6475: real time    0.6477
    MIXING:  cpu time    0.0164: real time    0.0164
    --------------------------------------------
      LOOP:  cpu time   15.4875: real time   15.4994

 eigenvalue-minimisations  :  7744
 total energy-change (2. order) : 0.7581502E-03  (-0.2847379E-02)
 number of electron     431.9999791 magnetization 
 augmentation part       45.7189970 magnetization 

 Broyden mixing:
  rms(total) = 0.38446E-01    rms(broyden)= 0.38443E-01
  rms(prec ) = 0.38733E-01
  weight for this iteration     100.00

 eigenvalues of (default mixing * dielectric matrix)
  average eigenvalue GAMMA=   1.2610
  2.3145  2.3145  1.4263  0.9185  0.9185  0.5807  0.8073  0.8073

 Free energy of the ion-electron system (eV)
  ---------------------------------------------------
  alpha Z        PSCENC =      1512.88847067
  Ewald energy   TEWEN  =    541587.57234308
  -Hartree energ DENC   =   -570900.55115967
  -exchange      EXHF   =         0.00000000
  -V(xc)+E(xc)   XCENC  =      1108.76779209
  PAW double counting   =     50307.57889820   -49699.38200704
  entropy T*S    EENTRO =        -0.00000000
  eigenvalues    EBANDS =     -4419.54882273
  atomic energy  EATOM  =     29920.54117810
  Solvation  Ediel_sol  =         0.00000000
  ---------------------------------------------------
  free energy    TOTEN  =      -582.13330730 eV

  energy without entropy =     -582.13330730  energy(sigma->0) =     -582.13330730


--------------------------------------------------------------------------------------------------------




--------------------------------------- Iteration      1(  14)  ---------------------------------------


    POTLOK:  cpu time    0.1121: real time    0.1155
    SETDIJ:  cpu time    0.4543: real time    0.4543
     EDDAV:  cpu time   13.4398: real time   13.6139
       DOS:  cpu time    0.0013: real time    0.0017
    CHARGE:  cpu time    0.3728: real time    0.3728
    MIXING:  cpu time    0.0044: real time    0.0044
    --------------------------------------------
      LOOP:  cpu time   14.3847: real time   14.5626

 eigenvalue-minimisations  :  7520
 total energy-change (2. order) : 0.8552235E-03  (-0.7660842E-03)
 number of electron     431.9999791 magnetization 
 augmentation part       45.7010393 magnetization 

 Broyden mixing:
  rms(total) = 0.18981E-01    rms(broyden)= 0.18980E-01
  rms(prec ) = 0.19320E-01
  weight for this iteration     100.00

 eigenvalues of (default mixing * dielectric matrix)
  average eigenvalue GAMMA=   1.2654
  2.3588  1.9916  1.9916  0.9825  0.9825  0.9959  0.8426  0.5794  0.6637

 Free energy of the ion-electron system (eV)
  ---------------------------------------------------
  alpha Z        PSCENC =      1512.88847067
  Ewald energy   TEWEN  =    541587.57234308
  -Hartree energ DENC   =   -570906.75818556
  -exchange      EXHF   =         0.00000000
  -V(xc)+E(xc)   XCENC  =      1108.75688239
  PAW double counting   =     50326.68555262   -49718.19157562
  entropy T*S    EENTRO =        -0.00000000
  eigenvalues    EBANDS =     -4413.62711775
  atomic energy  EATOM  =     29920.54117810
  Solvation  Ediel_sol  =         0.00000000
  ---------------------------------------------------
  free energy    TOTEN  =      -582.13245208 eV

  energy without entropy =     -582.13245208  energy(sigma->0) =     -582.13245208


--------------------------------------------------------------------------------------------------------




--------------------------------------- Iteration      1(  15)  ---------------------------------------


    POTLOK:  cpu time    0.1108: real time    0.1142
    SETDIJ:  cpu time    0.4125: real time    0.4126
     EDDAV:  cpu time   13.6136: real time   14.3191
       DOS:  cpu time    0.0013: real time    0.0018
    CHARGE:  cpu time    0.4380: real time    0.4382
    MIXING:  cpu time    0.0037: real time    0.0037
    --------------------------------------------
      LOOP:  cpu time   14.5799: real time   15.2897

 eigenvalue-minimisations  :  7408
 total energy-change (2. order) : 0.2245648E-03  (-0.2392447E-03)
 number of electron     431.9999791 magnetization 
 augmentation part       45.6854737 magnetization 

 Broyden mixing:
  rms(total) = 0.14356E-01    rms(broyden)= 0.14355E-01
  rms(prec ) = 0.14683E-01
  weight for this iteration     100.00

 eigenvalues of (default mixing * dielectric matrix)
  average eigenvalue GAMMA=   1.2522
  2.3453  2.1437  2.1437  1.0888  1.0888  0.8652  0.8652  0.8083  0.5792  0.5943

 Free energy of the ion-electron system (eV)
  ---------------------------------------------------
  alpha Z        PSCENC =      1512.88847067
  Ewald energy   TEWEN  =    541587.57234308
  -Hartree energ DENC   =   -570912.42452820
  -exchange      EXHF   =         0.00000000
  -V(xc)+E(xc)   XCENC  =      1108.71176584
  PAW double counting   =     50353.57177564   -49745.20909321
  entropy T*S    EENTRO =        -0.00000000
  eigenvalues    EBANDS =     -4407.78413944
  atomic energy  EATOM  =     29920.54117810
  Solvation  Ediel_sol  =         0.00000000
  ---------------------------------------------------
  free energy    TOTEN  =      -582.13222751 eV

  energy without entropy =     -582.13222751  energy(sigma->0) =     -582.13222751


--------------------------------------------------------------------------------------------------------




--------------------------------------- Iteration      1(  16)  ---------------------------------------


    POTLOK:  cpu time    0.0899: real time    0.0931
    SETDIJ:  cpu time    0.4255: real time    0.4257
     EDDAV:  cpu time   12.8963: real time   13.2594
       DOS:  cpu time    0.0018: real time    0.0023
    CHARGE:  cpu time    0.4216: real time    0.4218
    MIXING:  cpu time    0.0025: real time    0.0025
    --------------------------------------------
      LOOP:  cpu time   13.8375: real time   14.2047

 eigenvalue-minimisations  :  7680
 total energy-change (2. order) : 0.1992015E-03  (-0.8219731E-04)
 number of electron     431.9999791 magnetization 
 augmentation part       45.6930925 magnetization 

 Broyden mixing:
  rms(total) = 0.65029E-02    rms(broyden)= 0.65024E-02
  rms(prec ) = 0.70501E-02
  weight for this iteration     100.00

 eigenvalues of (default mixing * dielectric matrix)
  average eigenvalue GAMMA=   1.3029
  2.6786  2.2617  1.7524  1.7524  1.0778  1.0778  0.8896  0.8369  0.8369  0.5751
  0.5925

 Free energy of the ion-electron system (eV)
  ---------------------------------------------------
  alpha Z        PSCENC =      1512.88847067
  Ewald energy   TEWEN  =    541587.57234308
  -Hartree energ DENC   =   -570917.42392129
  -exchange      EXHF   =         0.00000000
  -V(xc)+E(xc)   XCENC  =      1108.75315515
  PAW double counting   =     50351.08820302   -49742.72188328
  entropy T*S    EENTRO =        -0.00000000
  eigenvalues    EBANDS =     -4402.82957377
  atomic energy  EATOM  =     29920.54117810
  Solvation  Ediel_sol  =         0.00000000
  ---------------------------------------------------
  free energy    TOTEN  =      -582.13202831 eV

  energy without entropy =     -582.13202831  energy(sigma->0) =     -582.13202831


--------------------------------------------------------------------------------------------------------




--------------------------------------- Iteration      1(  17)  ---------------------------------------


    POTLOK:  cpu time    0.0794: real time    0.0836
    SETDIJ:  cpu time    0.4096: real time    0.4096
     EDDAV:  cpu time   11.6735: real time   11.8590
       DOS:  cpu time    0.0017: real time    0.0022
    CHARGE:  cpu time    0.4566: real time    0.4569
    MIXING:  cpu time    0.0068: real time    0.0068
    --------------------------------------------
      LOOP:  cpu time   12.6275: real time   12.8180

 eigenvalue-minimisations  :  6816
 total energy-change (2. order) : 0.2296730E-03  (-0.4651414E-04)
 number of electron     431.9999791 magnetization 
 augmentation part       45.6954263 magnetization 

 Broyden mixing:
  rms(total) = 0.45938E-02    rms(broyden)= 0.45936E-02
  rms(prec ) = 0.51039E-02
  weight for this iteration     100.00

[...]
   0.109E-12 -.130E-11 0.281E+04   0.131E-13 0.212E-13 -.281E+04   -.207E-24 0.000E+00 0.433E+00   0.283E-13 0.279E-13 0.568E-05
   0.110E-13 0.108E-11 0.729E+04   0.113E-13 0.204E-13 -.729E+04   0.207E-24 0.000E+00 -.253E+01   0.162E-13 0.353E-14 0.169E-03
   0.111E-14 -.158E-11 0.533E+04   0.113E-13 0.213E-13 -.533E+04   0.207E-24 0.000E+00 0.427E+00   0.715E-13 0.527E-14 -.910E-04
   0.931E-13 0.301E-12 0.475E+04   0.829E-14 0.162E-13 -.475E+04   -.103E-24 -.414E-24 -.431E+00   -.141E-13 -.421E-13 -.203E-04
   0.115E-12 -.850E-12 -.223E+04   0.131E-13 0.212E-13 0.223E+04   0.905E-25 0.000E+00 0.432E+00   0.426E-13 0.378E-13 -.439E-04
   -.372E-14 0.113E-11 0.223E+04   0.983E-14 0.162E-13 -.223E+04   -.103E-24 0.129E-24 -.432E+00   -.265E-13 -.337E-13 0.439E-04
   -.444E-14 0.279E-12 0.287E+03   0.113E-13 0.213E-13 -.287E+03   0.207E-24 0.000E+00 0.432E+00   0.209E-13 -.642E-15 -.632E-04
   0.115E-12 -.261E-12 -.287E+03   0.829E-14 0.162E-13 0.287E+03   -.207E-24 0.000E+00 -.432E+00   -.733E-14 0.432E-14 0.632E-04
   0.787E-13 -.859E-12 -.729E+04   0.113E-13 0.204E-13 0.729E+04   -.155E-24 0.000E+00 0.253E+01   0.728E-14 -.437E-14 -.169E-03
   -.101E-13 0.167E-11 -.281E+04   0.983E-14 0.162E-13 0.281E+04   0.207E-24 0.000E+00 -.433E+00   -.129E-13 -.267E-13 -.568E-05
   -.719E-14 -.753E-12 -.475E+04   0.113E-13 0.213E-13 0.475E+04   0.103E-24 0.414E-24 0.431E+00   0.342E-13 0.611E-13 0.203E-04
   0.858E-13 0.179E-11 -.533E+04   0.813E-14 0.163E-13 0.533E+04   -.414E-24 0.000E+00 -.427E+00   -.474E-13 -.451E-14 0.910E-04
   0.566E-14 -.149E-12 0.234E+04   0.558E-14 0.233E-14 -.234E+04   0.000E+00 0.000E+00 0.520E-01   0.251E-14 -.436E-14 0.333E-04
   -.280E-14 0.406E-12 0.132E+04   0.706E-14 0.184E-14 -.132E+04   0.000E+00 0.000E+00 -.387E-01   -.117E-14 0.350E-14 -.736E-05
   -.104E-14 -.117E-12 0.143E+04   0.692E-14 0.229E-14 -.143E+04   -.129E-25 0.000E+00 0.251E-01   0.830E-14 0.377E-14 0.132E-05
   0.217E-14 0.430E-12 0.224E+04   0.671E-14 0.236E-14 -.224E+04   0.000E+00 0.000E+00 -.178E-01   -.678E-14 -.352E-14 -.624E-04
   0.145E-13 -.377E-14 0.510E+03   0.688E-14 0.186E-14 -.510E+03   0.000E+00 0.000E+00 0.290E-01   0.173E-14 -.373E-16 0.896E-05
   -.144E-14 -.961E-13 -.510E+03   0.706E-14 0.184E-14 0.510E+03   0.000E+00 0.000E+00 -.290E-01   -.275E-14 -.359E-14 -.896E-05
   0.208E-14 -.739E-12 -.407E+03   0.692E-14 0.229E-14 0.407E+03   0.000E+00 -.517E-25 0.411E-01   -.412E-14 -.976E-14 0.291E-04
   0.667E-14 0.756E-12 0.407E+03   0.675E-14 0.231E-14 -.407E+03   -.129E-25 0.258E-25 -.411E-01   0.378E-14 0.113E-13 -.291E-04
   0.133E-13 -.429E-12 -.132E+04   0.688E-14 0.186E-14 0.132E+04   0.000E+00 0.000E+00 0.387E-01   0.314E-14 -.558E-14 0.736E-05
   -.233E-14 0.244E-12 -.234E+04   0.558E-14 0.233E-14 0.234E+04   0.113E-25 0.000E+00 -.520E-01   -.584E-14 0.107E-14 -.333E-04
   -.301E-14 -.101E-12 -.224E+04   0.686E-14 0.234E-14 0.224E+04   0.129E-25 0.000E+00 0.178E-01   0.784E-14 0.601E-14 0.624E-04
   0.330E-14 0.219E-12 -.143E+04   0.675E-14 0.231E-14 0.143E+04   0.000E+00 0.000E+00 -.251E-01   -.101E-13 -.237E-14 -.132E-05
   -.246E-13 -.347E-12 0.407E+04   -.188E-14 0.598E-14 -.407E+04   0.207E-24 0.000E+00 0.465E+00   0.597E-14 0.349E-14 0.944E-04
   -.456E-14 -.882E-12 0.142E+04   0.418E-14 0.103E-13 -.142E+04   -.258E-24 0.000E+00 -.440E+00   -.196E-13 -.130E-13 0.544E-05
   -.838E-15 -.208E-12 0.270E+04   0.435E-14 0.103E-13 -.270E+04   -.414E-24 0.000E+00 0.442E+00   0.441E-14 0.823E-15 -.198E-04
   -.253E-13 -.949E-12 0.280E+04   -.328E-14 0.596E-14 -.280E+04   0.000E+00 0.000E+00 -.442E+00   -.731E-14 -.172E-14 -.268E-04
   0.347E-14 -.669E-12 0.133E+04   -.349E-14 0.593E-14 -.133E+04   0.414E-24 0.000E+00 0.446E+00   0.186E-13 0.749E-14 0.115E-04
   -.880E-14 0.827E-12 -.133E+04   0.418E-14 0.103E-13 0.133E+04   -.310E-24 0.000E+00 -.446E+00   -.200E-13 -.625E-14 -.115E-04
   -.630E-14 0.713E-12 -.460E+02   0.434E-14 0.103E-13 0.456E+02   0.517E-25 -.103E-24 0.445E+00   0.253E-13 0.168E-13 0.148E-04
   -.282E-13 -.644E-12 0.460E+02   -.332E-14 0.596E-14 -.456E+02   -.103E-24 0.000E+00 -.445E+00   -.272E-13 -.190E-13 -.148E-04
   -.276E-13 0.765E-12 -.142E+04   -.349E-14 0.593E-14 0.142E+04   -.620E-24 0.000E+00 0.440E+00   0.180E-13 0.125E-13 -.544E-05
   -.170E-13 -.189E-12 -.407E+04   -.188E-14 0.598E-14 0.407E+04   0.000E+00 0.207E-24 -.465E+00   -.440E-14 -.650E-14 -.944E-04
   -.503E-14 0.127E-11 -.280E+04   0.431E-14 0.103E-13 0.280E+04   -.258E-25 0.000E+00 0.442E+00   0.639E-14 -.132E-14 0.268E-04
   -.132E-13 0.287E-12 -.270E+04   -.332E-14 0.596E-14 0.270E+04   0.620E-24 0.000E+00 -.442E+00   -.541E-14 -.568E-14 0.198E-04
   0.344E-15 -.227E-13 0.206E+04   0.210E-13 0.476E-14 -.206E+04   -.517E-25 0.000E+00 -.578E-02   -.123E-13 -.557E-14 0.274E-07
   0.206E-14 -.113E-11 0.355E+04   0.604E-14 -.107E-13 -.355E+04   0.517E-24 0.517E-25 -.159E+01   -.475E-14 0.216E-13 0.917E-04
   -.177E-13 0.648E-12 0.195E+04   0.451E-14 -.256E-14 -.195E+04   0.000E+00 -.207E-24 0.150E+01   -.291E-13 0.552E-14 -.115E-04
   0.139E-12 -.265E-11 0.355E+04   -.145E-13 0.148E-14 -.355E+04   0.000E+00 0.620E-24 -.159E+01   0.334E-13 0.410E-13 0.917E-04
   0.137E-12 -.314E-11 0.195E+04   -.386E-13 -.820E-14 -.195E+04   0.000E+00 0.207E-24 0.150E+01   -.120E-13 0.413E-14 -.115E-04
   0.184E-12 0.101E-11 0.344E+04   -.127E-14 0.288E-14 -.344E+04   0.000E+00 0.000E+00 0.165E+00   0.237E-13 0.313E-13 -.224E-04
   0.140E-12 -.220E-11 0.217E+04   -.203E-13 -.110E-13 -.217E+04   -.414E-24 0.000E+00 -.150E+01   -.428E-13 -.340E-13 0.978E-05
   0.142E-12 0.302E-12 0.333E+04   0.187E-14 -.218E-14 -.333E+04   0.103E-24 0.000E+00 0.149E+01   0.270E-14 0.110E-13 -.104E-03
   -.997E-14 -.513E-12 0.217E+04   -.194E-13 0.694E-15 -.217E+04   -.103E-24 -.517E-25 -.150E+01   0.285E-14 -.459E-14 0.978E-05
   -.937E-16 0.754E-12 0.333E+04   -.419E-13 -.816E-14 -.333E+04   -.207E-24 -.207E-24 0.149E+01   0.415E-13 0.261E-13 -.104E-03
   -.304E-14 0.170E-12 -.687E+03   0.210E-13 0.476E-14 0.687E+03   0.000E+00 -.323E-26 0.532E-02   0.277E-13 0.232E-13 0.401E-04
   -.727E-14 -.829E-12 0.799E+03   0.340E-14 -.121E-13 -.798E+03   0.000E+00 0.103E-24 -.149E+01   -.235E-13 -.718E-13 0.309E-04
   0.581E-14 0.182E-11 -.799E+03   0.451E-14 -.256E-14 0.798E+03   0.000E+00 -.808E-27 0.149E+01   0.460E-13 -.211E-14 -.309E-04
   0.143E-12 -.198E-11 0.799E+03   -.174E-13 0.247E-14 -.798E+03   0.000E+00 0.258E-25 -.149E+01   -.291E-13 0.142E-13 0.309E-04
   0.127E-12 0.475E-12 -.799E+03   -.386E-13 -.820E-14 0.798E+03   0.000E+00 -.775E-25 0.149E+01   0.294E-13 0.621E-13 -.309E-04
   0.131E-12 0.551E-12 0.687E+03   -.144E-14 0.329E-14 -.687E+03   0.000E+00 0.000E+00 -.532E-02   -.137E-13 -.138E-13 -.401E-04
   0.127E-12 0.145E-11 -.576E+03   -.203E-13 -.110E-13 0.577E+03   0.258E-25 0.129E-25 -.150E+01   0.122E-13 -.195E-13 0.460E-04
   0.154E-12 0.392E-12 0.576E+03   0.234E-14 -.228E-14 -.577E+03   0.517E-25 0.000E+00 0.150E+01   -.200E-13 -.408E-13 -.460E-04
   -.924E-14 -.348E-15 -.576E+03   -.194E-13 0.693E-15 0.577E+03   0.000E+00 0.000E+00 -.150E+01   0.326E-13 0.406E-13 0.460E-04
   -.186E-13 -.950E-12 0.576E+03   -.418E-13 -.807E-14 -.577E+03   0.646E-26 0.000E+00 0.150E+01   -.519E-14 0.322E-13 -.460E-04
   -.483E-14 -.377E-13 -.344E+04   0.208E-13 0.425E-14 0.344E+04   0.000E+00 -.646E-26 -.165E+00   -.121E-13 -.264E-13 0.224E-04
   -.644E-14 0.310E-11 -.195E+04   0.340E-14 -.121E-13 0.195E+04   0.000E+00 -.213E-24 -.150E+01   0.760E-14 -.830E-14 0.115E-04
   -.524E-14 0.312E-11 -.355E+04   0.642E-14 -.365E-14 0.355E+04   0.000E+00 0.207E-24 0.159E+01   -.282E-13 -.296E-13 -.917E-04
   0.159E-12 -.905E-12 -.195E+04   -.174E-13 0.247E-14 0.195E+04   0.000E+00 0.207E-24 -.150E+01   0.346E-13 0.142E-14 0.115E-04
   0.114E-12 0.131E-11 -.355E+04   -.369E-13 -.691E-14 0.355E+04   -.414E-24 0.000E+00 0.159E+01   0.129E-13 -.237E-13 -.917E-04
   0.146E-12 0.403E-12 -.206E+04   -.144E-14 0.329E-14 0.206E+04   0.517E-25 0.000E+00 0.578E-02   0.274E-13 0.794E-14 -.274E-07
   0.120E-12 -.573E-12 -.333E+04   -.204E-13 -.111E-13 0.333E+04   0.103E-24 0.207E-24 -.149E+01   -.462E-13 -.115E-13 0.104E-03
   0.137E-12 0.663E-12 -.217E+04   0.234E-14 -.228E-14 0.217E+04   0.233E-24 0.000E+00 0.150E+01   0.593E-14 0.729E-15 -.978E-05
   -.398E-14 0.101E-11 -.333E+04   -.199E-13 0.800E-15 0.333E+04   0.000E+00 0.000E+00 -.149E+01   0.457E-14 -.147E-13 0.104E-03
   -.222E-13 0.282E-11 -.217E+04   -.418E-13 -.807E-14 0.217E+04   0.414E-24 0.000E+00 0.150E+01   0.446E-13 0.514E-13 -.978E-05
 -----------------------------------------------------------------------------------------------
   0.246E-11 0.611E-11 0.162E-09   -.107E-12 0.248E-12 -.150E-10   -.292E-24 0.108E-23 -.377E-14   0.215E-12 0.798E-13 -.782E-10
 
 
 POSITION                                       TOTAL-FORCE (eV/Angst)
 -----------------------------------------------------------------------------------
      1.88501      1.88501     32.17606        -0.000000      0.000000      0.001119
      0.00000      0.00000     13.23097        -0.000000     -0.000000      0.557370
      0.00000      0.00000     20.82430         0.000000      0.000000      0.002903
      1.88501      1.88501     24.58273        -0.000000      0.000000      0.000353
      1.88501      1.88501     54.87957        -0.000000      0.000000      0.000370
      0.00000      0.00000     35.93449         0.000000     -0.000000     -0.000370
      0.00000      0.00000     43.52781        -0.000000     -0.000000     -0.000008
      1.88501      1.88501     47.28624        -0.000000      0.000000      0.000008
      1.88501      1.88501     77.58308        -0.000000      0.000000     -0.557370
      0.00000      0.00000     58.63800        -0.000000     -0.000000     -0.001119
      0.00000      0.00000     66.23133        -0.000000      0.000000     -0.000353
      1.88501      1.88501     69.98976        -0.000000     -0.000000     -0.002903
      1.88501      1.88501     15.20881        -0.000000     -0.000000     -0.217831
      0.00000      0.00000     30.19822        -0.000000     -0.000000     -0.004224
      0.00000      0.00000     26.56057         0.000000      0.000000     -0.009169
      1.88501      1.88501     18.84646        -0.000000      0.000000      0.021536
      1.88501      1.88501     37.91232        -0.000000     -0.000000     -0.005031
      0.00000      0.00000     52.90173        -0.000000      0.000000      0.005031
      0.00000      0.00000     49.26408        -0.000000     -0.000000      0.006743
      1.88501      1.88501     41.54997        -0.000000     -0.000000     -0.006743
      1.88501      1.88501     60.61584         0.000000     -0.000000      0.004224
      0.00000      0.00000     75.60524        -0.000000      0.000000      0.217831
      0.00000      0.00000     71.96760        -0.000000     -0.000000     -0.021536
      1.88501      1.88501     64.25349        -0.000000     -0.000000      0.009169
      1.88501      1.88501     12.35543        -0.000000      0.000000     -0.393231
      0.00000      0.00000     33.05159        -0.000000     -0.000000      0.001480
      0.00000      0.00000     23.70719        -0.000000     -0.000000      0.001374
      1.88501      1.88501     21.69984        -0.000000     -0.000000      0.000092
      1.88501      1.88501     35.05895        -0.000000      0.000000      0.003828
      0.00000      0.00000     55.75511        -0.000000      0.000000     -0.003828
      0.00000      0.00000     46.41070        -0.000000     -0.000000      0.003239
      1.88501      1.88501     44.40335        -0.000000      0.000000     -0.003239
      1.88501      1.88501     57.76246        -0.000000      0.000000     -0.001480
      0.00000      0.00000     78.45862        -0.000000      0.000000      0.393231
      0.00000      0.00000     69.11422        -0.000000     -0.000000     -0.000092
      1.88501      1.88501     67.10686        -0.000000      0.000000     -0.001374
      0.00000      0.00000     28.37939        -0.000000     -0.000000     -0.005943
      0.00000      1.88501     14.73177        -0.000000      0.000000     -0.016434
      0.00000      1.88501     30.67526        -0.000000      0.000000      0.005780
      1.88501      0.00000     14.73177        -0.000000      0.000000     -0.016434
      1.88501      0.00000     30.67526        -0.000000     -0.000000      0.005780
      1.88501      1.88501     17.02764        -0.000000     -0.000000      0.059841
      1.88501      0.00000     26.08352        -0.000000     -0.000000     -0.002753
      1.88501      0.00000     19.32351        -0.000000      0.000000     -0.000173
      0.00000      1.88501     26.08352        -0.000000      0.000000     -0.002753
      0.00000      1.88501     19.32351        -0.000000     -0.000000     -0.000173
      0.00000      0.00000     51.08291        -0.000000      0.000000      0.005633
      0.00000      1.88501     37.43528        -0.000000     -0.000000      0.008204
      0.00000      1.88501     53.37878        -0.000000      0.000000     -0.008204
      1.88501      0.00000     37.43528        -0.000000     -0.000000      0.008204
      1.88501      0.00000     53.37878        -0.000000      0.000000     -0.008204
      1.88501      1.88501     39.73115        -0.000000     -0.000000     -0.005633
      1.88501      0.00000     48.78704        -0.000000      0.000000      0.000373
      1.88501      0.00000     42.02702        -0.000000     -0.000000     -0.000373
      0.00000      1.88501     48.78704        -0.000000     -0.000000      0.000373
      0.00000      1.88501     42.02702        -0.000000      0.000000     -0.000373
      0.00000      0.00000     73.78642        -0.000000      0.000000     -0.059841
      0.00000      1.88501     60.13879        -0.000000     -0.000000     -0.005780
      0.00000      1.88501     76.08229        -0.000000     -0.000000      0.016434
      1.88501      0.00000     60.13879        -0.000000     -0.000000     -0.005780
      1.88501      0.00000     76.08229        -0.000000      0.000000      0.016434
      1.88501      1.88501     62.43466         0.000000      0.000000      0.005943
      1.88501      0.00000     71.49055        -0.000000      0.000000      0.000173
      1.88501      0.00000     64.73053        -0.000000     -0.000000      0.002753
      0.00000      1.88501     71.49055        -0.000000     -0.000000      0.000173
      0.00000      1.88501     64.73053        -0.000000      0.000000      0.002753
 -----------------------------------------------------------------------------------
    total drift:                                0.000000      0.000000      0.000000


--------------------------------------------------------------------------------------------------------



  FREE ENERGIE OF THE ION-ELECTRON SYSTEM (eV)
  ---------------------------------------------------
  free  energy   TOTEN  =      -582.13326027 eV

  energy  without entropy=     -582.13326027  energy(sigma->0) =     -582.13326027
 


--------------------------------------------------------------------------------------------------------


    POTLOK:  cpu time    0.6105: real time    0.6105


--------------------------------------------------------------------------------------------------------


     LOOP+:  cpu time  483.8513: real time  499.7642
    4ORBIT:  cpu time    0.0000: real time    0.0000
 


 total charge     
 
# of ion       s       p       d       f       tot
--------------------------------------------------
    1        2.160   6.402   0.964   0.105   9.631
    2        2.159   6.376   0.919   0.100   9.554
    3        2.160   6.402   0.964   0.105   9.631
    4        2.160   6.402   0.964   0.105   9.631
    5        2.160   6.402   0.964   0.105   9.631
    6        2.160   6.402   0.964   0.105   9.631
    7        2.160   6.402   0.964   0.105   9.631
    8        2.160   6.402   0.964   0.105   9.631
    9        2.159   6.376   0.919   0.100   9.554
   10        2.160   6.402   0.964   0.105   9.631
   11        2.160   6.402   0.964   0.105   9.631
   12        2.160   6.402   0.964   0.105   9.631
   13        0.578   1.041   2.739   0.000   4.358
   14        0.577   1.035   2.742   0.000   4.354
   15        0.577   1.034   2.742   0.000   4.354
   16        0.578   1.035   2.742   0.000   4.354
   17        0.577   1.034   2.742   0.000   4.354
   18        0.577   1.034   2.742   0.000   4.354
   19        0.577   1.035   2.742   0.000   4.354
   20        0.577   1.035   2.742   0.000   4.354
   21        0.577   1.035   2.742   0.000   4.354
   22        0.578   1.041   2.739   0.000   4.358
   23        0.578   1.035   2.742   0.000   4.354
   24        0.577   1.034   2.742   0.000   4.354
   25        1.317   2.439   0.000   0.000   3.756
   26        1.318   2.461   0.000   0.000   3.779
   27        1.318   2.461   0.000   0.000   3.779
   28        1.318   2.461   0.000   0.000   3.779
   29        1.318   2.461   0.000   0.000   3.779
   30        1.318   2.461   0.000   0.000   3.779
   31        1.318   2.461   0.000   0.000   3.779
   32        1.318   2.461   0.000   0.000   3.779
   33        1.318   2.461   0.000   0.000   3.779
   34        1.317   2.439   0.000   0.000   3.756
   35        1.318   2.461   0.000   0.000   3.779
   36        1.318   2.461   0.000   0.000   3.779
   37        1.575   3.429   0.000   0.000   5.004
   38        1.575   3.410   0.000   0.000   4.984
   39        1.552   3.536   0.000   0.000   5.087
   40        1.552   3.537   0.000   0.000   5.088
   41        1.575   3.410   0.000   0.000   4.985
   42        1.576   3.430   0.000   0.000   5.005
   43        1.575   3.410   0.000   0.000   4.985
   44        1.552   3.536   0.000   0.000   5.087
   45        1.552   3.536   0.000   0.000   5.087
   46        1.575   3.410   0.000   0.000   4.985
   47        1.575   3.429   0.000   0.000   5.004
   48        1.575   3.410   0.000   0.000   4.985
   49        1.552   3.536   0.000   0.000   5.087
   50        1.552   3.536   0.000   0.000   5.087
   51        1.575   3.410   0.000   0.000   4.985
   52        1.575   3.429   0.000   0.000   5.004
   53        1.575   3.410   0.000   0.000   4.985
   54        1.552   3.536   0.000   0.000   5.087
   55        1.552   3.536   0.000   0.000   5.087
   56        1.575   3.410   0.000   0.000   4.985
   57        1.576   3.430   0.000   0.000   5.005
   58        1.575   3.410   0.000   0.000   4.985
   59        1.552   3.537   0.000   0.000   5.088
   60        1.552   3.536   0.000   0.000   5.087
   61        1.575   3.410   0.000   0.000   4.984
   62        1.575   3.429   0.000   0.000   5.004
   63        1.575   3.410   0.000   0.000   4.985
   64        1.552   3.536   0.000   0.000   5.087
   65        1.552   3.536   0.000   0.000   5.087
   66        1.575   3.410   0.000   0.000   4.985
--------------------------------------------------
tot         95.633 222.619  44.370   1.250 363.872

 

 total amount of memory used by VASP MPI-rank0    71177. kBytes
=======================================================================

   base      :      30000. kBytes
   nonlr-proj:      15406. kBytes
   fftplans  :       4572. kBytes
   grid      :       8613. kBytes
   one-center:        270. kBytes
   wavefun   :      12316. kBytes
 
  
  
 General timing and accounting informations for this job:
 ========================================================
  
                  Total CPU time used (sec):      549.164
                            User time (sec):      523.303
                          System time (sec):       25.861
                         Elapsed time (sec):      569.050
  
                   Maximum memory used (kb):      199316.
                   Average memory used (kb):           0.
  
                          Minor page faults:       103804
                          Major page faults:            0
                 Voluntary context switches:       151679
