 vasp.5.4.4.18Apr17-6-g9f103f2a35 (build Jun 20 2017 18:00:50) complex          
  
 executed on             LinuxIFC date 2020.05.13  10:13:52
 running on  256 total cores
 distrk:  each k-point on  128 cores,    2 groups
 distr:  one band on NCORES_PER_BAND=   8 cores,   16 groups


--------------------------------------------------------------------------------------------------------


 INCAR:
 POTCAR:    PAW_PBE Y_sv 25May2007                
 POTCAR:    PAW_PBE Ti 08Apr2002                  
 POTCAR:    PAW_PBE S 06Sep2000                   
 POTCAR:    PAW_PBE O 08Apr2002                   

 ----------------------------------------------------------------------------- 
|                                                                             |
|           W    W    AA    RRRRR   N    N  II  N    N   GGGG   !!!           |
|           W    W   A  A   R    R  NN   N  II  NN   N  G    G  !!!           |
|           W    W  A    A  R    R  N N  N  II  N N  N  G       !!!           |
|           W WW W  AAAAAA  RRRRR   N  N N  II  N  N N  G  GGG   !            |
|           WW  WW  A    A  R   R   N   NN  II  N   NN  G    G                |
|           W    W  A    A  R    R  N    N  II  N    N   GGGG   !!!           |
|                                                                             |
|      You have enabled k-point parallelism (KPAR>1).                         |
|      This developmental code was originally  written by Paul Kent at ORNL,  |
|      and carefully double checked in Vienna.                                |
|      GW as well as linear response parallelism added by Martijn Marsman     |
|      and Georg Kresse.                                                      |
|      Carefully verify results versus KPAR=1.                                |
|      Report problems to Paul Kent and Vienna.                               |
|                                                                             |
 ----------------------------------------------------------------------------- 

 POTCAR:    PAW_PBE Y_sv 25May2007                
   VRHFIN =Y: 4s4p5s4d                                                          
   LEXCH  = PE                                                                  
   EATOM  =  1046.9140 eV,   76.9460 Ry                                         
                                                                                
   TITEL  = PAW_PBE Y_sv 25May2007                                              
   LULTRA =        F    use ultrasoft PP ?                                      
   IUNSCR =        1    unscreen: 0-lin 1-nonlin 2-no                           
   RPACOR =    2.200    partial core radius                                     
   POMASS =   88.906; ZVAL   =   11.000    mass and valenz                      
   RCORE  =    2.800    outmost cutoff radius                                   
   RWIGS  =    3.430; RWIGS  =    1.815    wigner-seitz radius (au A)           
   ENMAX  =  202.626; ENMIN  =  151.970 eV                                      
   RCLOC  =    2.212    cutoff for local pot                                    
   LCOR   =        T    correct aug charges                                     
   LPAW   =        T    paw PP                                                  
   EAUG   =  470.889                                                            
   DEXC   =    0.000                                                            
   RMAX   =    2.863    core radius for proj-oper                               
   RAUG   =    1.300    factor for augmentation sphere                          
   RDEP   =    2.926    radius for radial grids                                 
   RDEPT  =    2.280    core radius for aug-charge                              
                                                                                
   Atomic configuration                                                         
   11 entries                                                                   
     n  l   j            E        occ.                                          
     1  0  0.50    -16863.0720   2.0000                                         
     2  0  0.50     -2309.2881   2.0000                                         
     2  1  1.50     -2055.5536   6.0000                                         
     3  0  0.50      -367.1837   2.0000                                         
     3  1  1.50      -284.8912   6.0000                                         
     3  2  2.50      -149.4324  10.0000                                         
     4  0  0.50       -46.3345   2.0000                                         
     5  0  0.50        -3.6387   1.0000                                         
     4  1  1.50       -26.3769   6.0000                                         
     4  2  2.50        -1.6291   2.0000                                         
     4  3  2.50        -1.3606   0.0000                                         
   Description                                                                  
     l       E           TYP  RCUT    TYP  RCUT                                 
     0    -46.3344714     23  2.600                                             
     0     -3.6387002     23  2.700                                             
     1    -26.3769044     23  2.600                                             
     1    -27.7374870     23  2.600                                             
     2     -1.6291019     23  2.600                                             
     2      0.1354037     23  2.600                                             
     3     -1.3605826     23  2.800                                             
  local pseudopotential read in
  partial core-charges read in
  partial kinetic energy density read in
  atomic valenz-charges read in
  non local Contribution for L=           0  read in
    real space projection operators read in
  non local Contribution for L=           0  read in
    real space projection operators read in
  non local Contribution for L=           1  read in
    real space projection operators read in
  non local Contribution for L=           1  read in
    real space projection operators read in
  non local Contribution for L=           2  read in
    real space projection operators read in
  non local Contribution for L=           2  read in
    real space projection operators read in
  non local Contribution for L=           3  read in
    real space projection operators read in
    PAW grid and wavefunctions read in
 
   number of l-projection  operators is LMAX  =           7
   number of lm-projection operators is LMMAX =          25
 
 POTCAR:    PAW_PBE Ti 08Apr2002                  
   VRHFIN =Ti: d3 s1                                                            
   LEXCH  = PE                                                                  
   EATOM  =    94.7928 eV,    6.9671 Ry                                         
                                                                                
   TITEL  = PAW_PBE Ti 08Apr2002                                                
   LULTRA =        F    use ultrasoft PP ?                                      
   IUNSCR =        1    unscreen: 0-lin 1-nonlin 2-no                           
   RPACOR =    2.200    partial core radius                                     
   POMASS =   47.880; ZVAL   =    4.000    mass and valenz                      
   RCORE  =    2.800    outmost cutoff radius                                   
   RWIGS  =    2.500; RWIGS  =    1.323    wigner-seitz radius (au A)           
   ENMAX  =  178.330; ENMIN  =  133.747 eV                                      
   RCLOC  =    2.215    cutoff for local pot                                    
   LCOR   =        T    correct aug charges                                     
   LPAW   =        T    paw PP                                                  
   EAUG   =  328.883                                                            
   DEXC   =    0.000                                                            
   RMAX   =    2.868    core radius for proj-oper                               
   RAUG   =    1.300    factor for augmentation sphere                          
   RDEP   =    2.885    radius for radial grids                                 
   RDEPT  =    2.320    core radius for aug-charge                              
                                                                                
   Atomic configuration                                                         
    9 entries                                                                   
     n  l   j            E        occ.                                          
     1  0  0.50     -4865.3608   2.0000                                         
     2  0  0.50      -533.1367   2.0000                                         
     2  1  1.50      -440.5031   6.0000                                         
     3  0  0.50       -59.3186   2.0000                                         
     3  1  1.50       -35.7012   6.0000                                         
     3  2  2.50        -1.9157   3.0000                                         
     4  0  0.50        -3.7291   1.0000                                         
     4  1  1.50        -4.0817   0.0000                                         
     4  3  2.50        -1.3606   0.0000                                         
   Description                                                                  
     l       E           TYP  RCUT    TYP  RCUT                                 
     2     -1.9156924     23  2.800                                             
     2     -0.4062961     23  2.800                                             
     0     -3.7290832     23  2.800                                             
     0     20.4087390     23  2.800                                             
     1     -5.4423304     23  2.800                                             
  local pseudopotential read in
  partial core-charges read in
  partial kinetic energy density read in
  atomic valenz-charges read in
  non local Contribution for L=           2  read in
    real space projection operators read in
  non local Contribution for L=           2  read in
    real space projection operators read in
  non local Contribution for L=           0  read in
    real space projection operators read in
  non local Contribution for L=           0  read in
    real space projection operators read in
  non local Contribution for L=           1  read in
    real space projection operators read in
    PAW grid and wavefunctions read in
 
   number of l-projection  operators is LMAX  =           5
   number of lm-projection operators is LMMAX =          15
 
 POTCAR:    PAW_PBE S 06Sep2000                   
   VRHFIN =S : s2p4                                                             
   LEXCH  = PE                                                                  
   EATOM  =   276.8230 eV,   20.3459 Ry                                         
                                                                                
   TITEL  = PAW_PBE S 06Sep2000                                                 
   LULTRA =        F    use ultrasoft PP ?                                      
   IUNSCR =        1    unscreen: 0-lin 1-nonlin 2-no                           
   RPACOR =    1.500    partial core radius                                     
   POMASS =   32.066; ZVAL   =    6.000    mass and valenz                      
   RCORE  =    1.900    outmost cutoff radius                                   
   RWIGS  =    2.200; RWIGS  =    1.164    wigner-seitz radius (au A)           
   ENMAX  =  258.689; ENMIN  =  194.016 eV                                      
   ICORE  =        2    local potential                                         
   LCOR   =        T    correct aug charges                                     
   LPAW   =        T    paw PP                                                  
   EAUG   =  335.092                                                            
   DEXC   =    0.000                                                            
   RMAX   =    1.942    core radius for proj-oper                               
   RAUG   =    1.300    factor for augmentation sphere                          
   RDEP   =    1.954    radius for radial grids                                 
   RDEPT  =    1.744    core radius for aug-charge                              
                                                                                
   Atomic configuration                                                         
    6 entries                                                                   
     n  l   j            E        occ.                                          
     1  0  0.50     -2405.8406   2.0000                                         
     2  0  0.50      -211.7007   2.0000                                         
     2  1  1.50      -156.4958   6.0000                                         
     3  0  0.50       -17.2562   2.0000                                         
     3  1  0.50        -7.0085   4.0000                                         
     3  2  1.50        -6.8029   0.0000                                         
   Description                                                                  
     l       E           TYP  RCUT    TYP  RCUT                                 
     0    -17.2561641     23  1.900                                             
     0    -15.8743224     23  1.900                                             
     1     -7.0085400     23  1.900                                             
     1     -2.7779785     23  1.900                                             
     2     -6.8029130     23  1.900                                             
  local pseudopotential read in
  partial core-charges read in
  partial kinetic energy density read in
  atomic valenz-charges read in
  non local Contribution for L=           0  read in
    real space projection operators read in
  non local Contribution for L=           0  read in
    real space projection operators read in
  non local Contribution for L=           1  read in
    real space projection operators read in
  non local Contribution for L=           1  read in
    real space projection operators read in
    PAW grid and wavefunctions read in
 
   number of l-projection  operators is LMAX  =           4
   number of lm-projection operators is LMMAX =           8
 
 POTCAR:    PAW_PBE O 08Apr2002                   
   VRHFIN =O: s2p4                                                              
   LEXCH  = PE                                                                  
   EATOM  =   432.3788 eV,   31.7789 Ry                                         
                                                                                
   TITEL  = PAW_PBE O 08Apr2002                                                 
   LULTRA =        F    use ultrasoft PP ?                                      
   IUNSCR =        1    unscreen: 0-lin 1-nonlin 2-no                           
   RPACOR =    1.200    partial core radius                                     
   POMASS =   16.000; ZVAL   =    6.000    mass and valenz                      
   RCORE  =    1.520    outmost cutoff radius                                   
   RWIGS  =    1.550; RWIGS  =    0.820    wigner-seitz radius (au A)           
   ENMAX  =  400.000; ENMIN  =  300.000 eV                                      
   ICORE  =        2    local potential                                         
   LCOR   =        T    correct aug charges                                     
   LPAW   =        T    paw PP                                                  
   EAUG   =  605.392                                                            
   DEXC   =    0.000                                                            
   RMAX   =    1.553    core radius for proj-oper                               
   RAUG   =    1.300    factor for augmentation sphere                          
   RDEP   =    1.550    radius for radial grids                                 
   RDEPT  =    1.329    core radius for aug-charge                              
                                                                                
   Atomic configuration                                                         
    4 entries                                                                   
     n  l   j            E        occ.                                          
     1  0  0.50      -514.6923   2.0000                                         
     2  0  0.50       -23.9615   2.0000                                         
     2  1  0.50        -9.0305   4.0000                                         
     3  2  1.50        -9.5241   0.0000                                         
   Description                                                                  
     l       E           TYP  RCUT    TYP  RCUT                                 
     0    -23.9615318     23  1.200                                             
     0     -9.5240782     23  1.200                                             
     1     -9.0304911     23  1.520                                             
     1      8.1634956     23  1.520                                             
     2     -9.5240782      7  1.500                                             
  local pseudopotential read in
  partial core-charges read in
  partial kinetic energy density read in
  kinetic energy density of atom read in
  atomic valenz-charges read in
  non local Contribution for L=           0  read in
    real space projection operators read in
  non local Contribution for L=           0  read in
    real space projection operators read in
  non local Contribution for L=           1  read in
    real space projection operators read in
  non local Contribution for L=           1  read in
    real space projection operators read in
    PAW grid and wavefunctions read in
 
   number of l-projection  operators is LMAX  =           4
   number of lm-projection operators is LMMAX =           8
 
 Optimization of the real space projectors (new method)

 maximal supplied QI-value         = 13.42
 optimisation between [QCUT,QGAM] = [ 11.67, 23.35] = [ 38.16,152.62] Ry 
 Optimized for a Real-space Cutoff    1.68 Angstroem

   l    n(q)    QCUT    max X(q) W(low)/X(q) W(high)/X(q)  e(spline) 
   0     12    11.673    14.902    0.22E-04    0.24E-05    0.52E-07
   0     12    11.673     9.294    0.34E-04    0.58E-05    0.89E-07
   1     11    11.673    69.520    0.10E-04    0.47E-04    0.49E-06
   1     11    11.673    72.085    0.10E-04    0.48E-04    0.50E-06
   2     11    11.673    62.934    0.94E-04    0.14E-04    0.82E-06
   2     11    11.673    49.749    0.91E-04    0.13E-04    0.79E-06
   3     10    11.673     8.311    0.92E-04    0.21E-04    0.59E-06
 Optimization of the real space projectors (new method)

 maximal supplied QI-value         = 13.42
 optimisation between [QCUT,QGAM] = [ 11.67, 23.35] = [ 38.16,152.62] Ry 
 Optimized for a Real-space Cutoff    1.58 Angstroem

   l    n(q)    QCUT    max X(q) W(low)/X(q) W(high)/X(q)  e(spline) 
   2     10    11.673    49.363    0.16E-03    0.28E-03    0.91E-06
   2     10    11.673    47.669    0.16E-03    0.27E-03    0.88E-06
   0     11    11.673    26.374    0.54E-04    0.10E-03    0.52E-06
   0     11    11.673    11.549    0.41E-04    0.83E-04    0.43E-06
   1     11    11.673     9.492    0.36E-04    0.11E-04    0.17E-06
 Optimization of the real space projectors (new method)

 maximal supplied QI-value         = 19.84
 optimisation between [QCUT,QGAM] = [ 11.51, 23.22] = [ 37.09,150.92] Ry 
 Optimized for a Real-space Cutoff    1.21 Angstroem

   l    n(q)    QCUT    max X(q) W(low)/X(q) W(high)/X(q)  e(spline) 
   0      8    11.508   187.594    0.96E-04    0.18E-03    0.54E-07
   0      8    11.508   164.243    0.96E-04    0.18E-03    0.54E-07
   1      8    11.508    67.533    0.18E-03    0.65E-04    0.94E-07
   1      8    11.508    50.729    0.18E-03    0.63E-04    0.92E-07
 Optimization of the real space projectors (new method)

 maximal supplied QI-value         = 24.76
 optimisation between [QCUT,QGAM] = [ 11.64, 23.27] = [ 37.91,151.63] Ry 
 Optimized for a Real-space Cutoff    1.14 Angstroem

   l    n(q)    QCUT    max X(q) W(low)/X(q) W(high)/X(q)  e(spline) 
   0      8    11.635    20.381    0.10E-03    0.33E-03    0.24E-06
   0      8    11.635    15.268    0.11E-03    0.35E-03    0.26E-06
   1      7    11.635     5.964    0.24E-03    0.31E-03    0.30E-06
   1      7    11.635     5.382    0.22E-03    0.25E-03    0.26E-06

 ----------------------------------------------------------------------------- 
|                                                                             |
|  ADVICE TO THIS USER RUNNING 'VASP/VAMP'   (HEAR YOUR MASTER'S VOICE ...):  |
|                                                                             |
|      You enforced a specific xc-type in the INCAR file,                     |
|      a different type was found on the POTCAR file                          |
|          I HOPE YOU KNOW, WHAT YOU ARE  DOING                               |
|                                                                             |
 ----------------------------------------------------------------------------- 

  PAW_PBE Y_sv 25May2007                :
 energy of atom  1       EATOM=-1046.9140
 kinetic energy error for atom=    0.0008 (will be added to EATOM!!)
  PAW_PBE Ti 08Apr2002                  :
 energy of atom  2       EATOM=  -94.7928
 kinetic energy error for atom=    0.0002 (will be added to EATOM!!)
  PAW_PBE S 06Sep2000                   :
 energy of atom  3       EATOM= -276.8230
 kinetic energy error for atom=    0.0016 (will be added to EATOM!!)
  PAW_PBE O 08Apr2002                   :
 energy of atom  4       EATOM= -432.3788
 kinetic energy error for atom=    0.0208 (will be added to EATOM!!)
 
 
 POSCAR: Y8 Ti8 S8 O20                           
  positions in direct lattice
  No initial velocities read in
 exchange correlation table for  LEXCH =       14
   RHO(1)=    0.500       N(1)  =     2000
   RHO(2)=  100.500       N(2)  =     4000
 


--------------------------------------------------------------------------------------------------------


 ion  position               nearest neighbor table
   1  0.500  0.500  0.472-  27 2.41  29 2.41  29 2.41  27 2.41  18 2.81  18 2.81  18 2.81  18 2.81
                            21 2.88  10 3.32  10 3.32  10 3.32  10 3.32
   2  0.000  0.000  0.194-  26 2.41  28 2.41  26 2.41  28 2.41  17 2.81  17 2.81  17 2.81  17 2.81
                             9 3.32   9 3.32   9 3.32   9 3.32
   3  0.000  0.000  0.306-  32 2.41  34 2.41  34 2.41  32 2.41  20 2.81  20 2.81  20 2.81  20 2.81
                            19 2.88  12 3.32  12 3.32  12 3.32  12 3.32
   4  0.500  0.500  0.361-  31 2.41  33 2.41  31 2.41  33 2.41  19 2.81  19 2.81  19 2.81  19 2.81
                            20 2.88  11 3.32  11 3.32  11 3.32  11 3.32
   5  0.500  0.500  0.806-  37 2.41  39 2.41  39 2.41  37 2.41  22 2.81  22 2.81  22 2.81  22 2.81
                            14 3.32  14 3.32  14 3.32  14 3.32
   6  0.000  0.000  0.528-  36 2.41  38 2.41  36 2.41  38 2.41  21 2.81  21 2.81  21 2.81  21 2.81
                            18 2.88  13 3.32  13 3.32  13 3.32  13 3.32
   7  0.000  0.000  0.639-  42 2.41  44 2.41  44 2.41  42 2.41  24 2.81  24 2.81  24 2.81  24 2.81
                            23 2.88  16 3.32  16 3.32  16 3.32  16 3.32
   8  0.500  0.500  0.694-  41 2.41  43 2.41  41 2.41  43 2.41  23 2.81  23 2.81  23 2.81  23 2.81
                            24 2.88  15 3.32  15 3.32  15 3.32  15 3.32
   9  0.500  0.500  0.223-  30 1.82  28 1.94  26 1.94  28 1.94  26 1.94  17 2.85   2 3.32   2 3.32
                             2 3.32   2 3.32
  10  0.000  0.000  0.443-  25 1.82  27 1.94  29 1.94  27 1.94  29 1.94  18 2.85   1 3.32   1 3.32
                             1 3.32   1 3.32
  11  0.000  0.000  0.390-  25 1.82  31 1.94  33 1.94  33 1.94  31 1.94  19 2.85   4 3.32   4 3.32
                             4 3.32   4 3.32
  12  0.500  0.500  0.277-  30 1.82  32 1.94  34 1.94  32 1.94  34 1.94  20 2.85   3 3.32   3 3.32
                             3 3.32   3 3.32
  13  0.500  0.500  0.557-  40 1.82  38 1.94  36 1.94  38 1.94  36 1.94  21 2.85   6 3.32   6 3.32
                             6 3.32   6 3.32
  14  0.000  0.000  0.777-  35 1.82  37 1.94  39 1.94  37 1.94  39 1.94  22 2.85   5 3.32   5 3.32
                             5 3.32   5 3.32
  15  0.000  0.000  0.723-  35 1.82  41 1.94  43 1.94  43 1.94  41 1.94  23 2.85   8 3.32   8 3.32
                             8 3.32   8 3.32
  16  0.500  0.500  0.610-  40 1.82  42 1.94  44 1.94  42 1.94  44 1.94  24 2.85   7 3.32   7 3.32
                             7 3.32   7 3.32
  17  0.500  0.500  0.181-   2 2.81   2 2.81   2 2.81   2 2.81   9 2.85
  18  0.000  0.000  0.485-   1 2.81   1 2.81   1 2.81   1 2.81  10 2.85   6 2.88
  19  0.000  0.000  0.348-   4 2.81   4 2.81   4 2.81   4 2.81  11 2.85   3 2.88
  20  0.500  0.500  0.319-   3 2.81   3 2.81   3 2.81   3 2.81  12 2.85   4 2.88
  21  0.500  0.500  0.515-   6 2.81   6 2.81   6 2.81   6 2.81  13 2.85   1 2.88
  22  0.000  0.000  0.819-   5 2.81   5 2.81   5 2.81   5 2.81  14 2.85
  23  0.000  0.000  0.681-   8 2.81   8 2.81   8 2.81   8 2.81  15 2.85   7 2.88
  24  0.500  0.500  0.652-   7 2.81   7 2.81   7 2.81   7 2.81  16 2.85   8 2.88
  25  0.000  0.000  0.417-  10 1.82  11 1.82
  26  0.000  0.500  0.216-   9 1.94   9 1.94   2 2.41   2 2.41
  27  0.000  0.500  0.450-  10 1.94  10 1.94   1 2.41   1 2.41
  28  0.500  0.000  0.216-   9 1.94   9 1.94   2 2.41   2 2.41
  29  0.500  0.000  0.450-  10 1.94  10 1.94   1 2.41   1 2.41
  30  0.500  0.500  0.250-   9 1.82  12 1.82
  31  0.500  0.000  0.383-  11 1.94  11 1.94   4 2.41   4 2.41
  32  0.500  0.000  0.284-  12 1.94  12 1.94   3 2.41   3 2.41
  33  0.000  0.500  0.383-  11 1.94  11 1.94   4 2.41   4 2.41
  34  0.000  0.500  0.284-  12 1.94  12 1.94   3 2.41   3 2.41
  35  0.000  0.000  0.750-  14 1.82  15 1.82
  36  0.000  0.500  0.550-  13 1.94  13 1.94   6 2.41   6 2.41
  37  0.000  0.500  0.784-  14 1.94  14 1.94   5 2.41   5 2.41
  38  0.500  0.000  0.550-  13 1.94  13 1.94   6 2.41   6 2.41
  39  0.500  0.000  0.784-  14 1.94  14 1.94   5 2.41   5 2.41
  40  0.500  0.500  0.583-  13 1.82  16 1.82
  41  0.500  0.000  0.716-  15 1.94  15 1.94   8 2.41   8 2.41
  42  0.500  0.000  0.617-  16 1.94  16 1.94   7 2.41   7 2.41
  43  0.000  0.500  0.716-  15 1.94  15 1.94   8 2.41   8 2.41
  44  0.000  0.500  0.617-  16 1.94  16 1.94   7 2.41   7 2.41
 
  LATTYP: Found a simple tetragonal cell.
 ALAT       =     3.7700230000
 C/A-ratio  =    18.0663460143
  
  Lattice vectors:
  
 A1 = (   3.7700230000,   0.0000000000,   0.0000000000)
 A2 = (   0.0000000000,   3.7700230000,   0.0000000000)
 A3 = (   0.0000000000,   0.0000000000,  68.1105400000)


Analysis of symmetry for initial positions (statically):
=====================================================================
 Subroutine PRICEL returns:
 Original cell was already a primitive cell.
 

 Routine SETGRP: Setting up the symmetry group for a 
 simple tetragonal supercell.


 Subroutine GETGRP returns: Found 16 space group operations
 (whereof  8 operations were pure point group operations)
 out of a pool of 16 trial point group operations.


The static configuration has the point symmetry C_4v.
 The point group associated with its full space group is D_4h.


Analysis of symmetry for dynamics (positions and initial velocities):
=====================================================================
 Subroutine PRICEL returns:
 Original cell was already a primitive cell.
 

 Routine SETGRP: Setting up the symmetry group for a 
 simple tetragonal supercell.


 Subroutine GETGRP returns: Found 16 space group operations
 (whereof  8 operations were pure point group operations)
 out of a pool of 16 trial point group operations.


The dynamic configuration has the point symmetry C_4v.
 The point group associated with its full space group is D_4h.


 Subroutine INISYM returns: Found 16 space group operations
 (whereof  8 operations are pure point group operations),
 and found     1 'primitive' translations

 
 
 KPOINTS: Automatic mesh                          

Automatic generation of k-mesh.
Space group operators:
 irot       det(A)        alpha          n_x          n_y          n_z        tau_x        tau_y        tau_z
    1     1.000000     0.000000     1.000000     0.000000     0.000000     0.000000     0.000000     0.000000
    2     1.000000    90.000000     0.000000     0.000000    -1.000000     0.000000     0.000000     0.000000
    3     1.000000   180.000000     0.000000     0.000000     1.000000     0.000000     0.000000     0.000000
    4     1.000000    90.000000     0.000000     0.000000     1.000000     0.000000     0.000000     0.000000
    5    -1.000000   180.000000     0.000000     1.000000     0.000000     0.000000     0.000000     0.000000
    6    -1.000000   180.000000     0.707107     0.707107     0.000000     0.000000     0.000000     0.000000
    7    -1.000000   180.000000     1.000000     0.000000     0.000000     0.000000     0.000000     0.000000
    8    -1.000000   180.000000     0.707107    -0.707107     0.000000     0.000000     0.000000     0.000000
    9    -1.000000     0.000000     1.000000     0.000000     0.000000     0.500000     0.500000     0.000000
   10    -1.000000    90.000000     0.000000     0.000000    -1.000000     0.500000     0.500000     0.000000
   11    -1.000000   180.000000     0.000000     0.000000     1.000000     0.500000     0.500000     0.000000
   12    -1.000000    90.000000     0.000000     0.000000     1.000000     0.500000     0.500000     0.000000
   13     1.000000   180.000000     0.000000     1.000000     0.000000     0.500000     0.500000     0.000000
   14     1.000000   180.000000     0.707107     0.707107     0.000000     0.500000     0.500000     0.000000
   15     1.000000   180.000000     1.000000     0.000000     0.000000     0.500000     0.500000     0.000000
   16     1.000000   180.000000     0.707107    -0.707107     0.000000     0.500000     0.500000     0.000000
 
 Subroutine IBZKPT returns following result:
 ===========================================
 
 Found     10 irreducible k-points:
 
 Following reciprocal coordinates:
            Coordinates               Weight
  0.000000  0.000000  0.000000      1.000000
  0.166667  0.000000  0.000000      4.000000
  0.333333  0.000000  0.000000      4.000000
  0.500000  0.000000  0.000000      2.000000
  0.166667  0.166667  0.000000      4.000000
  0.333333  0.166667  0.000000      8.000000
  0.500000  0.166667  0.000000      4.000000
  0.333333  0.333333  0.000000      4.000000
  0.500000  0.333333  0.000000      4.000000
  0.500000  0.500000  0.000000      1.000000
 
 Following cartesian coordinates:
            Coordinates               Weight
  0.000000  0.000000  0.000000      1.000000
  0.044208  0.000000  0.000000      4.000000
  0.088417  0.000000  0.000000      4.000000
  0.132625  0.000000  0.000000      2.000000
  0.044208  0.044208  0.000000      4.000000
  0.088417  0.044208  0.000000      8.000000
  0.132625  0.044208  0.000000      4.000000
  0.088417  0.088417  0.000000      4.000000
  0.132625  0.088417  0.000000      4.000000
  0.132625  0.132625  0.000000      1.000000
 


--------------------------------------------------------------------------------------------------------




 Dimension of arrays:
   k-points           NKPTS =     10   k-points in BZ     NKDIM =     10   number of bands    NBANDS=    176
   number of dos      NEDOS =   2000   number of ions     NIONS =     44
   non local maximal  LDIM  =      7   non local SUM 2l+1 LMDIM =     25
   total plane-waves  NPLWV = 401408
   max r-space proj   IRMAX =   8227   max aug-charges    IRDMAX=  30089
   dimension x,y,z NGX =    28 NGY =   28 NGZ =  512
   dimension x,y,z NGXF=    56 NGYF=   56 NGZF= 1024
   support grid    NGXF=    56 NGYF=   56 NGZF= 1024
   ions per type =               8   8   8  20
   NGX,Y,Z   is equivalent  to a cutoff of  12.35, 12.35, 12.50 a.u.
   NGXF,Y,Z  is equivalent  to a cutoff of  24.69, 24.69, 24.99 a.u.

 SYSTEM =  Generic Input                           
 POSCAR =  Y8 Ti8 S8 O20                           

 Startparameter for this run:
   NWRITE =      2    write-flag & timer
   PREC   = accura    normal or accurate (medium, high low for compatibility)
   ISTART =      0    job   : 0-new  1-cont  2-samecut
   ICHARG =      2    charge: 1-file 2-atom 10-const
   ISPIN  =      1    spin polarized calculation?
   LNONCOLLINEAR =      F non collinear calculations
   LSORBIT =      F    spin-orbit coupling
   INIWAV =      1    electr: 0-lowe 1-rand  2-diag
   LASPH  =      T    aspherical Exc in radial PAW
   METAGGA=      F    non-selfconsistent MetaGGA calc.

 Electronic Relaxation 1
   ENCUT  =  520.0 eV  38.22 Ry    6.18 a.u.   7.01  7.01126.64*2*pi/ulx,y,z
   ENINI  =  520.0     initial cutoff
   ENAUG  =  605.4 eV  augmentation charge cutoff
   NELM   =    200;   NELMIN=  2; NELMDL=  0     # of ELM steps 
   EDIFF  = 0.1E-05   stopping-criterion for ELM
   LREAL  =      T    real-space projection
   NLSPLINE    = F    spline interpolate recip. space projectors
   LCOMPAT=      F    compatible to vasp.4.4
   GGA_COMPAT  = T    GGA compatible to vasp.4.4-vasp.4.6
   LMAXPAW     = -100 max onsite density
   LMAXMIX     =    2 max onsite mixed and CHGCAR
   VOSKOWN=      0    Vosko Wilk Nusair interpolation
   ROPT   =   -0.00025  -0.00025  -0.00025  -0.00025
 Ionic relaxation
   EDIFFG = -.1E-01   stopping-criterion for IOM
   NSW    =      0    number of steps for IOM
   NBLOCK =      1;   KBLOCK =      1    inner block; outer block 
   IBRION =     -1    ionic relax: 0-MD 1-quasi-New 2-CG
   NFREE  =      0    steps in history (QN), initial steepest desc. (CG)
   ISIF   =      2    stress and relaxation
   IWAVPR =     11    prediction:  0-non 1-charg 2-wave 3-comb
   ISYM   =      2    0-nonsym 1-usesym 2-fastsym
   LCORR  =      T    Harris-Foulkes like correction to forces

   POTIM  = 0.5000    time-step for ionic-motion
   TEIN   =    0.0    initial temperature
   TEBEG  =    0.0;   TEEND  =   0.0 temperature during run
   SMASS  =  -3.00    Nose mass-parameter (am)
   estimated Nose-frequenzy (Omega)   =  0.10E-29 period in steps =****** mass=  -0.325E-27a.u.
   SCALEE = 1.0000    scale energy and forces
   NPACO  =    256;   APACO  = 16.0  distance and # of slots for P.C.
   PSTRESS=    0.0 pullay stress

  Mass of Ions in am
   POMASS =  88.91 47.88 32.07 16.00
  Ionic Valenz
   ZVAL   =  11.00  4.00  6.00  6.00
  Atomic Wigner-Seitz radii
   RWIGS  =  -1.00 -1.00 -1.00 -1.00
  virtual crystal weights 
   VCA    =   1.00  1.00  1.00  1.00
   NELECT =     288.0000    total number of electrons
   NUPDOWN=      -1.0000    fix difference up-down

 DOS related values:
   EMIN   =  10.00;   EMAX   =-10.00  energy-range for DOS
   EFERMI =   0.00
   ISMEAR =     0;   SIGMA  =   0.02  broadening in eV -4-tet -1-fermi 0-gaus

 Electronic relaxation 2 (details)
   IALGO  =     38    algorithm
   LDIAG  =      T    sub-space diagonalisation (order eigenvalues)
   LSUBROT=      F    optimize rotation matrix (better conditioning)
   TURBO    =      0    0=normal 1=particle mesh
   IRESTART =      0    0=no restart 2=restart with 2 vectors
   NREBOOT  =      0    no. of reboots
   NMIN     =      0    reboot dimension
   EREF     =   0.00    reference energy to select bands
   IMIX   =      4    mixing-type and parameters
     AMIX     =   0.40;   BMIX     =  1.00
     AMIX_MAG =   1.60;   BMIX_MAG =  1.00
     AMIN     =   0.05
     WC   =   100.;   INIMIX=   1;  MIXPRE=   1;  MAXMIX= -45

 Intra band minimization:
   WEIMIN = 0.0000     energy-eigenvalue tresh-hold
   EBREAK =  0.14E-08  absolut break condition
   DEPER  =   0.30     relativ break condition  

   TIME   =   0.40     timestep for ELM

  volume/ion in A,a.u.               =      22.00       148.47
  Fermi-wavevector in a.u.,A,eV,Ry     =   1.092878  2.065239 16.250548  1.194382
  Thomas-Fermi vector in A             =   2.229152
 
 Write flags
   LWAVE        =      F    write WAVECAR
   LDOWNSAMPLE  =      F    k-point downsampling of WAVECAR
   LCHARG       =      F    write CHGCAR
   LVTOT        =      F    write LOCPOT, total local potential
   LVHAR        =      T    write LOCPOT, Hartree potential only
   LELF         =      F    write electronic localiz. function (ELF)
   LORBIT       =     11    0 simple, 1 ext, 2 COOP (PROOUT), +10 PAW based schemes


 Dipole corrections
   LMONO  =      F    monopole corrections only (constant potential shift)
   LDIPOL =      F    correct potential (dipole corrections)
   IDIPOL =      0    1-x, 2-y, 3-z, 4-all directions 
   EPSILON=  1.0000000 bulk dielectric constant

 Core level calculations are selected ICORELEVEL =  1
 Exchange correlation treatment:
   GGA     =    PS    GGA type
   LEXCH   =    14    internal setting for exchange type
   VOSKOWN=      0    Vosko Wilk Nusair interpolation
   LHFCALC =     F    Hartree Fock is set to
   LHFONE  =     F    Hartree Fock one center treatment
   AEXX    =    0.0000 exact exchange contribution

 Linear response parameters
   LEPSILON=     F    determine dielectric tensor
   LRPA    =     F    only Hartree local field effects (RPA)
   LNABLA  =     F    use nabla operator in PAW spheres
   LVEL    =     F    velocity operator in full k-point grid
   LINTERFAST=   F  fast interpolation
   KINTER  =     0    interpolate to denser k-point grid
   CSHIFT  =0.1000    complex shift for real part using Kramers Kronig
   OMEGAMAX=  -1.0    maximum frequency
   DEG_THRESHOLD= 0.2000000E-02 threshold for treating states as degnerate
   RTIME   =   -0.100 relaxation time in fs
  (WPLASMAI=    0.000 imaginary part of plasma frequency in eV, 0.658/RTIME)
   DFIELD  = 0.0000000 0.0000000 0.0000000 field for delta impulse in time
 
 Orbital magnetization related:
   ORBITALMAG=     F  switch on orbital magnetization
   LCHIMAG   =     F  perturbation theory with respect to B field
   DQ        =  0.001000  dq finite difference perturbation B field
   LLRAUG    =     F  two centre corrections for induced B field



--------------------------------------------------------------------------------------------------------


 Static calculation
 charge density and potential will be updated during run
 non-spin polarized calculation
 Variant of blocked Davidson
 Davidson routine will perform the subspace rotation
 perform sub-space diagonalisation
    after iterative eigenvector-optimisation
 modified Broyden-mixing scheme, WC =      100.0
 initial mixing is a Kerker type mixing with AMIX =  0.4000 and BMIX =      1.0000
 Hartree-type preconditioning will be used
 using additional bands           32
 real space projection scheme for non local part
 use partial core corrections
 calculate Harris-corrections to forces 
   (improved forces if not selfconsistent)
 use gradient corrections 
 use of overlap-Matrix (Vanderbilt PP)
 Gauss-broadening in eV      SIGMA  =   0.02


--------------------------------------------------------------------------------------------------------


  energy-cutoff  :      520.00
  volume of cell :      968.06
      direct lattice vectors                 reciprocal lattice vectors
     3.770023000  0.000000000  0.000000000     0.265250371  0.000000000  0.000000000
     0.000000000  3.770023000  0.000000000     0.000000000  0.265250371  0.000000000
     0.000000000  0.000000000 68.110540000     0.000000000  0.000000000  0.014682015

  length of vectors
     3.770023000  3.770023000 68.110540000     0.265250371  0.265250371  0.014682015


 
 k-points in units of 2pi/SCALE and weight: Automatic mesh                          
   0.00000000  0.00000000  0.00000000       0.028
   0.04420840  0.00000000  0.00000000       0.111
   0.08841679  0.00000000  0.00000000       0.111
   0.13262519  0.00000000  0.00000000       0.056
   0.04420840  0.04420840  0.00000000       0.111
   0.08841679  0.04420840  0.00000000       0.222
   0.13262519  0.04420840  0.00000000       0.111
   0.08841679  0.08841679  0.00000000       0.111
   0.13262519  0.08841679  0.00000000       0.111
   0.13262519  0.13262519  0.00000000       0.028
 
 k-points in reciprocal lattice and weights: Automatic mesh                          
   0.00000000  0.00000000  0.00000000       0.028
   0.16666667  0.00000000  0.00000000       0.111
   0.33333333  0.00000000  0.00000000       0.111
   0.50000000  0.00000000  0.00000000       0.056
   0.16666667  0.16666667  0.00000000       0.111
   0.33333333  0.16666667  0.00000000       0.222
   0.50000000  0.16666667  0.00000000       0.111
   0.33333333  0.33333333  0.00000000       0.111
   0.50000000  0.33333333  0.00000000       0.111
   0.50000000  0.50000000  0.00000000       0.028
 
 position of ions in fractional coordinates (direct lattice) 
   0.50000000  0.50000000  0.47241000
   0.00000000  0.00000000  0.19425700
   0.00000000  0.00000000  0.30574300
   0.50000000  0.50000000  0.36092300
   0.50000000  0.50000000  0.80574300
   0.00000000  0.00000000  0.52759000
   0.00000000  0.00000000  0.63907700
   0.50000000  0.50000000  0.69425700
   0.50000000  0.50000000  0.22329600
   0.00000000  0.00000000  0.44337100
   0.00000000  0.00000000  0.38996200
   0.50000000  0.50000000  0.27670400
   0.50000000  0.50000000  0.55662900
   0.00000000  0.00000000  0.77670400
   0.00000000  0.00000000  0.72329600
   0.50000000  0.50000000  0.61003800
   0.50000000  0.50000000  0.18140300
   0.00000000  0.00000000  0.48526400
   0.00000000  0.00000000  0.34807000
   0.50000000  0.50000000  0.31859700
   0.50000000  0.50000000  0.51473600
   0.00000000  0.00000000  0.81859700
   0.00000000  0.00000000  0.68140300
   0.50000000  0.50000000  0.65193000
   0.00000000  0.00000000  0.41666700
   0.00000000  0.50000000  0.21629200
   0.00000000  0.50000000  0.45037500
   0.50000000  0.00000000  0.21629200
   0.50000000  0.00000000  0.45037500
   0.50000000  0.50000000  0.25000000
   0.50000000  0.00000000  0.38295900
   0.50000000  0.00000000  0.28370800
   0.00000000  0.50000000  0.38295900
   0.00000000  0.50000000  0.28370800
   0.00000000  0.00000000  0.75000000
   0.00000000  0.50000000  0.54962500
   0.00000000  0.50000000  0.78370800
   0.50000000  0.00000000  0.54962500
   0.50000000  0.00000000  0.78370800
   0.50000000  0.50000000  0.58333300
   0.50000000  0.00000000  0.71629200
   0.50000000  0.00000000  0.61704100
   0.00000000  0.50000000  0.71629200
   0.00000000  0.50000000  0.61704100
 
 position of ions in cartesian coordinates  (Angst):
   1.88501150  1.88501150 32.17610020
   0.00000000  0.00000000 13.23094917
   0.00000000  0.00000000 20.82432083
   1.88501150  1.88501150 24.58266043
   1.88501150  1.88501150 54.87959083
   0.00000000  0.00000000 35.93443980
   0.00000000  0.00000000 43.52787957
   1.88501150  1.88501150 47.28621917
   1.88501150  1.88501150 15.20881114
   0.00000000  0.00000000 30.19823823
   0.00000000  0.00000000 26.56052240
   1.88501150  1.88501150 18.84645886
   1.88501150  1.88501150 37.91230177
   0.00000000  0.00000000 52.90172886
   0.00000000  0.00000000 49.26408114
   1.88501150  1.88501150 41.55001760
   1.88501150  1.88501150 12.35545629
   0.00000000  0.00000000 33.05159308
   0.00000000  0.00000000 23.70723566
   1.88501150  1.88501150 21.69981371
   1.88501150  1.88501150 35.05894692
   0.00000000  0.00000000 55.75508371
   0.00000000  0.00000000 46.41072629
   1.88501150  1.88501150 44.40330434
   0.00000000  0.00000000 28.37941437
   0.00000000  1.88501150 14.73176492
   0.00000000  1.88501150 30.67528445
   1.88501150  0.00000000 14.73176492
   1.88501150  0.00000000 30.67528445
   1.88501150  1.88501150 17.02763500
   1.88501150  0.00000000 26.08354429
   1.88501150  0.00000000 19.32350508
   0.00000000  1.88501150 26.08354429
   0.00000000  1.88501150 19.32350508
   0.00000000  0.00000000 51.08290500
   0.00000000  1.88501150 37.43525555
   0.00000000  1.88501150 53.37877508
   1.88501150  0.00000000 37.43525555
   1.88501150  0.00000000 53.37877508
   1.88501150  1.88501150 39.73112563
   1.88501150  0.00000000 48.78703492
   1.88501150  0.00000000 42.02699571
   0.00000000  1.88501150 48.78703492
   0.00000000  1.88501150 42.02699571
 


--------------------------------------------------------------------------------------------------------


 k-point  1 :   0.0000 0.0000 0.0000  plane waves:   25769
 k-point  2 :   0.1667 0.0000 0.0000  plane waves:   25902
 k-point  3 :   0.3333 0.0000 0.0000  plane waves:   25998
 k-point  4 :   0.5000 0.0000 0.0000  plane waves:   26090
 k-point  5 :   0.1667 0.1667 0.0000  plane waves:   26000
 k-point  6 :   0.3333 0.1667 0.0000  plane waves:   26086
 k-point  7 :   0.5000 0.1667 0.0000  plane waves:   26144
 k-point  8 :   0.3333 0.3333 0.0000  plane waves:   26132
 k-point  9 :   0.5000 0.3333 0.0000  plane waves:   26152
 k-point 10 :   0.5000 0.5000 0.0000  plane waves:   26108

 maximum and minimum number of plane-waves per node :      3322     3190

 maximum number of plane-waves:     26152
 maximum index in each direction: 
   IXMAX=    7   IYMAX=    7   IZMAX=  126
   IXMIN=   -7   IYMIN=   -7   IZMIN= -126


 real space projection operators:
  total allocation   :      23276.02 KBytes
  max/ min on nodes  :       3296.12       2512.73


 parallel 3D FFT for wavefunctions:
    minimum data exchange during FFTs selected (reduces bandwidth)
 parallel 3D FFT for charge:
    minimum data exchange during FFTs selected (reduces bandwidth)


 total amount of memory used by VASP MPI-rank0    56176. kBytes
=======================================================================

   base      :      30000. kBytes
   nonlr-proj:      10233. kBytes
   fftplans  :       3420. kBytes
   grid      :       6430. kBytes
   one-center:        180. kBytes
   wavefun   :       5913. kBytes
 
     INWAV:  cpu time    0.0000: real time    0.0000
 Broyden mixing: mesh for mixing (old mesh)
   NGX = 15   NGY = 15   NGZ =253
  (NGX  = 56   NGY  = 56   NGZ  =***)
  gives a total of  56925 points

 initial charge density was supplied:
 charge density of overlapping atoms calculated
 number of electron     288.0000000 magnetization 
 keeping initial charge density in first step


--------------------------------------------------------------------------------------------------------


 Maximum index for non-local projection operator         1226
 Maximum index for augmentation-charges         1142 (set IRDMAX)


--------------------------------------------------------------------------------------------------------


 First call to EWALD:  gamma=   0.179
 Maximum number of real-space cells 6x 6x 1
 Maximum number of reciprocal cells 1x 1x16

    FEWALD:  cpu time    0.0189: real time    0.0189


--------------------------------------- Iteration      1(   1)  ---------------------------------------


    POTLOK:  cpu time    0.1088: real time    0.1208
    SETDIJ:  cpu time    0.4463: real time    0.4464
     EDDAV:  cpu time    4.9633: real time    5.1322
       DOS:  cpu time    0.0013: real time    0.0013
    --------------------------------------------
      LOOP:  cpu time    5.5198: real time    5.7008

 eigenvalue-minimisations  :  3600
 total energy-change (2. order) : 0.3162437E+04  (-0.1273353E+05)
 number of electron     288.0000000 magnetization 
 augmentation part      288.0000000 magnetization 

 Free energy of the ion-electron system (eV)
  ---------------------------------------------------
  alpha Z        PSCENC =       896.52650772
  Ewald energy   TEWEN  =    319989.21864464
  -Hartree energ DENC   =   -338795.03060372
  -exchange      EXHF   =         0.00000000
  -V(xc)+E(xc)   XCENC  =       711.77745242
  PAW double counting   =     16075.50318149   -15645.87640431
  entropy T*S    EENTRO =        -0.00565858
  eigenvalues    EBANDS =       -16.70358600
  atomic energy  EATOM  =     19947.02745206
  Solvation  Ediel_sol  =         0.00000000
  ---------------------------------------------------
  free energy    TOTEN  =      3162.43698573 eV

  energy without entropy =     3162.44264432  energy(sigma->0) =     3162.43981502


--------------------------------------------------------------------------------------------------------




--------------------------------------- Iteration      1(   2)  ---------------------------------------


     EDDAV:  cpu time    4.6182: real time    4.9381
       DOS:  cpu time    0.0022: real time    0.0029
    --------------------------------------------
      LOOP:  cpu time    4.6204: real time    4.9410

 eigenvalue-minimisations  :  3968
 total energy-change (2. order) :-0.2913306E+04  (-0.2767701E+04)
 number of electron     288.0000000 magnetization 
 augmentation part      288.0000000 magnetization 

 Free energy of the ion-electron system (eV)
  ---------------------------------------------------
  alpha Z        PSCENC =       896.52650772
  Ewald energy   TEWEN  =    319989.21864464
  -Hartree energ DENC   =   -338795.03060372
  -exchange      EXHF   =         0.00000000
  -V(xc)+E(xc)   XCENC  =       711.77745242
  PAW double counting   =     16075.50318149   -15645.87640431
  entropy T*S    EENTRO =        -0.00164142
  eigenvalues    EBANDS =     -2930.01361656
  atomic energy  EATOM  =     19947.02745206
  Solvation  Ediel_sol  =         0.00000000
  ---------------------------------------------------
  free energy    TOTEN  =       249.13097233 eV

  energy without entropy =      249.13261376  energy(sigma->0) =      249.13179305


--------------------------------------------------------------------------------------------------------




--------------------------------------- Iteration      1(   3)  ---------------------------------------


     EDDAV:  cpu time    6.2469: real time    6.3731
       DOS:  cpu time    0.0016: real time    0.0016
    --------------------------------------------
      LOOP:  cpu time    6.2484: real time    6.3746

 eigenvalue-minimisations  :  4800
 total energy-change (2. order) :-0.6758025E+03  (-0.6623863E+03)
 number of electron     288.0000000 magnetization 
 augmentation part      288.0000000 magnetization 

 Free energy of the ion-electron system (eV)
  ---------------------------------------------------
  alpha Z        PSCENC =       896.52650772
  Ewald energy   TEWEN  =    319989.21864464
  -Hartree energ DENC   =   -338795.03060372
  -exchange      EXHF   =         0.00000000
  -V(xc)+E(xc)   XCENC  =       711.77745242
  PAW double counting   =     16075.50318149   -15645.87640431
  entropy T*S    EENTRO =        -0.00000000
  eigenvalues    EBANDS =     -3605.81777633
  atomic energy  EATOM  =     19947.02745206
  Solvation  Ediel_sol  =         0.00000000
  ---------------------------------------------------
  free energy    TOTEN  =      -426.67154601 eV

  energy without entropy =     -426.67154601  energy(sigma->0) =     -426.67154601


--------------------------------------------------------------------------------------------------------




--------------------------------------- Iteration      1(   4)  ---------------------------------------


     EDDAV:  cpu time    6.4151: real time    6.5316
       DOS:  cpu time    0.0010: real time    0.0014
    --------------------------------------------
      LOOP:  cpu time    6.4161: real time    6.5330

 eigenvalue-minimisations  :  4640
 total energy-change (2. order) :-0.4197571E+02  (-0.4181141E+02)
 number of electron     288.0000000 magnetization 
 augmentation part      288.0000000 magnetization 

 Free energy of the ion-electron system (eV)
  ---------------------------------------------------
  alpha Z        PSCENC =       896.52650772
  Ewald energy   TEWEN  =    319989.21864464
  -Hartree energ DENC   =   -338795.03060372
  -exchange      EXHF   =         0.00000000
  -V(xc)+E(xc)   XCENC  =       711.77745242
  PAW double counting   =     16075.50318149   -15645.87640431
  entropy T*S    EENTRO =        -0.00000000
  eigenvalues    EBANDS =     -3647.79348906
  atomic energy  EATOM  =     19947.02745206
  Solvation  Ediel_sol  =         0.00000000
  ---------------------------------------------------
  free energy    TOTEN  =      -468.64725874 eV

  energy without entropy =     -468.64725874  energy(sigma->0) =     -468.64725874


--------------------------------------------------------------------------------------------------------




--------------------------------------- Iteration      1(   5)  ---------------------------------------


     EDDAV:  cpu time    7.9227: real time    8.4208
       DOS:  cpu time    0.0018: real time    0.0023
    CHARGE:  cpu time    0.3825: real time    0.3825
    MIXING:  cpu time    0.0415: real time    0.0417
    --------------------------------------------
      LOOP:  cpu time    8.3485: real time    8.8473

 eigenvalue-minimisations  :  6448
 total energy-change (2. order) :-0.3839770E+01  (-0.3837429E+01)
 number of electron     287.9999829 magnetization 
 augmentation part       29.8922269 magnetization 

 Broyden mixing:
  rms(total) = 0.12175E+02    rms(broyden)= 0.12175E+02
  rms(prec ) = 0.12196E+02
  weight for this iteration     100.00

 Free energy of the ion-electron system (eV)
  ---------------------------------------------------
  alpha Z        PSCENC =       896.52650772
  Ewald energy   TEWEN  =    319989.21864464
  -Hartree energ DENC   =   -338795.03060372
  -exchange      EXHF   =         0.00000000
  -V(xc)+E(xc)   XCENC  =       711.77745242
  PAW double counting   =     16075.50318149   -15645.87640431
  entropy T*S    EENTRO =        -0.00000000
  eigenvalues    EBANDS =     -3651.63325955
  atomic energy  EATOM  =     19947.02745206
  Solvation  Ediel_sol  =         0.00000000
  ---------------------------------------------------
  free energy    TOTEN  =      -472.48702923 eV

  energy without entropy =     -472.48702923  energy(sigma->0) =     -472.48702923


--------------------------------------------------------------------------------------------------------




--------------------------------------- Iteration      1(   6)  ---------------------------------------


    POTLOK:  cpu time    0.0986: real time    0.1692
    SETDIJ:  cpu time    0.4081: real time    0.4081
     EDDAV:  cpu time    6.3328: real time    6.3867
       DOS:  cpu time    0.0018: real time    0.0021
    CHARGE:  cpu time    0.2242: real time    0.2244
    MIXING:  cpu time    0.0080: real time    0.0080
    --------------------------------------------
      LOOP:  cpu time    7.0736: real time    7.1985

 eigenvalue-minimisations  :  5088
 total energy-change (2. order) : 0.8305637E+02  (-0.5058568E+02)
 number of electron     287.9999880 magnetization 
 augmentation part       33.1316539 magnetization 

 Broyden mixing:
  rms(total) = 0.75022E+01    rms(broyden)= 0.75018E+01
  rms(prec ) = 0.75062E+01
  weight for this iteration     100.00

 eigenvalues of (default mixing * dielectric matrix)
  average eigenvalue GAMMA=   1.1014
  1.1014

 Free energy of the ion-electron system (eV)
  ---------------------------------------------------
  alpha Z        PSCENC =       896.52650772
  Ewald energy   TEWEN  =    319989.21864464
  -Hartree energ DENC   =   -339192.42232831
  -exchange      EXHF   =         0.00000000
  -V(xc)+E(xc)   XCENC  =       746.12836440
  PAW double counting   =     21939.45229106   -21531.42645327
  entropy T*S    EENTRO =        -0.00000000
  eigenvalues    EBANDS =     -3183.93513492
  atomic energy  EATOM  =     19947.02745206
  Solvation  Ediel_sol  =         0.00000000
  ---------------------------------------------------
  free energy    TOTEN  =      -389.43065660 eV

  energy without entropy =     -389.43065660  energy(sigma->0) =     -389.43065660


--------------------------------------------------------------------------------------------------------




--------------------------------------- Iteration      1(   7)  ---------------------------------------


    POTLOK:  cpu time    0.0951: real time    0.0970
    SETDIJ:  cpu time    0.4231: real time    0.4231
     EDDAV:  cpu time    7.1056: real time    7.2558
       DOS:  cpu time    0.0009: real time    0.0009
    CHARGE:  cpu time    0.2789: real time    0.2788
    MIXING:  cpu time    0.0088: real time    0.0088
    --------------------------------------------
      LOOP:  cpu time    7.9124: real time    8.0644

 eigenvalue-minimisations  :  4960
 total energy-change (2. order) :-0.4252139E+01  (-0.1550812E+02)
 number of electron     287.9999860 magnetization 
 augmentation part       29.2351870 magnetization 

 Broyden mixing:
  rms(total) = 0.55697E+01    rms(broyden)= 0.55696E+01
  rms(prec ) = 0.55735E+01
  weight for this iteration     100.00

 eigenvalues of (default mixing * dielectric matrix)
  average eigenvalue GAMMA=   1.9405
  0.7196  3.1614

 Free energy of the ion-electron system (eV)
  ---------------------------------------------------
  alpha Z        PSCENC =       896.52650772
  Ewald energy   TEWEN  =    319989.21864464
  -Hartree energ DENC   =   -339064.43282524
  -exchange      EXHF   =         0.00000000
  -V(xc)+E(xc)   XCENC  =       733.18801305
  PAW double counting   =     26381.34166818   -25985.76285474
  entropy T*S    EENTRO =        -0.00000000
  eigenvalues    EBANDS =     -3290.78940148
  atomic energy  EATOM  =     19947.02745206
  Solvation  Ediel_sol  =         0.00000000
  ---------------------------------------------------
  free energy    TOTEN  =      -393.68279581 eV

  energy without entropy =     -393.68279581  energy(sigma->0) =     -393.68279581


--------------------------------------------------------------------------------------------------------




--------------------------------------- Iteration      1(   8)  ---------------------------------------


    POTLOK:  cpu time    0.0993: real time    0.0997
    SETDIJ:  cpu time    0.4248: real time    0.4248
     EDDAV:  cpu time    6.9053: real time    7.2007
       DOS:  cpu time    0.0015: real time    0.0019
    CHARGE:  cpu time    0.2804: real time    0.2804
    MIXING:  cpu time    0.0018: real time    0.0018
    --------------------------------------------
      LOOP:  cpu time    7.7131: real time    8.0092

 eigenvalue-minimisations  :  5120
 total energy-change (2. order) : 0.2817986E+01  (-0.5728083E+01)
 number of electron     287.9999872 magnetization 
 augmentation part       33.2028053 magnetization 

 Broyden mixing:
  rms(total) = 0.27179E+01    rms(broyden)= 0.27179E+01
  rms(prec ) = 0.27262E+01
  weight for this iteration     100.00

 eigenvalues of (default mixing * dielectric matrix)
  average eigenvalue GAMMA=   1.3660
  2.3634  1.1245  0.6101

 Free energy of the ion-electron system (eV)
  ---------------------------------------------------
  alpha Z        PSCENC =       896.52650772
  Ewald energy   TEWEN  =    319989.21864464
  -Hartree energ DENC   =   -339125.23987388
  -exchange      EXHF   =         0.00000000
  -V(xc)+E(xc)   XCENC  =       739.61273226
  PAW double counting   =     36819.60827335   -36428.27074384
  entropy T*S    EENTRO =        -0.00127981
  eigenvalues    EBANDS =     -3229.34652261
  atomic energy  EATOM  =     19947.02745206
  Solvation  Ediel_sol  =         0.00000000
  ---------------------------------------------------
  free energy    TOTEN  =      -390.86481009 eV

  energy without entropy =     -390.86353029  energy(sigma->0) =     -390.86417019


--------------------------------------------------------------------------------------------------------




--------------------------------------- Iteration      1(   9)  ---------------------------------------


    POTLOK:  cpu time    0.0847: real time    0.0877
    SETDIJ:  cpu time    0.4310: real time    0.4312
     EDDAV:  cpu time    4.6112: real time    4.9072
       DOS:  cpu time    0.0044: real time    0.0054
    CHARGE:  cpu time    0.1849: real time    0.3161
    MIXING:  cpu time    0.0125: real time    0.0286
    --------------------------------------------
      LOOP:  cpu time    5.3288: real time    5.7762

 eigenvalue-minimisations  :  4736
 total energy-change (2. order) : 0.2819807E+01  (-0.2389750E+01)
 number of electron     287.9999864 magnetization 
 augmentation part       30.0904180 magnetization 

 Broyden mixing:
  rms(total) = 0.53567E+00    rms(broyden)= 0.53560E+00
  rms(prec ) = 0.53822E+00
  weight for this iteration     100.00

 eigenvalues of (default mixing * dielectric matrix)
  average eigenvalue GAMMA=   1.3482
  2.5707  1.1191  1.1191  0.5837

 Free energy of the ion-electron system (eV)
  ---------------------------------------------------
  alpha Z        PSCENC =       896.52650772
  Ewald energy   TEWEN  =    319989.21864464
  -Hartree energ DENC   =   -339114.07055495
  -exchange      EXHF   =         0.00000000
  -V(xc)+E(xc)   XCENC  =       736.55593819
  PAW double counting   =     33407.74966460   -33012.46486478
  entropy T*S    EENTRO =        -0.00000000
  eigenvalues    EBANDS =     -3238.58779093
  atomic energy  EATOM  =     19947.02745206
  Solvation  Ediel_sol  =         0.00000000
  ---------------------------------------------------
  free energy    TOTEN  =      -388.04500343 eV

  energy without entropy =     -388.04500343  energy(sigma->0) =     -388.04500343


--------------------------------------------------------------------------------------------------------




--------------------------------------- Iteration      1(  10)  ---------------------------------------


    POTLOK:  cpu time    0.0969: real time    0.1268
    SETDIJ:  cpu time    0.3751: real time    0.4773
     EDDAV:  cpu time    7.4592: real time    7.4839
       DOS:  cpu time    0.0015: real time    0.0022
    CHARGE:  cpu time    0.7455: real time    0.7456
    MIXING:  cpu time    0.0059: real time    0.0059
    --------------------------------------------
      LOOP:  cpu time    8.6841: real time    8.8417

 eigenvalue-minimisations  :  4992
 total energy-change (2. order) : 0.1864237E+00  (-0.2572917E+00)
 number of electron     287.9999866 magnetization 
 augmentation part       30.5342748 magnetization 

 Broyden mixing:
  rms(total) = 0.33853E+00    rms(broyden)= 0.33852E+00
  rms(prec ) = 0.33908E+00
  weight for this iteration     100.00

 eigenvalues of (default mixing * dielectric matrix)
  average eigenvalue GAMMA=   1.2438
  1.9748  1.9748  0.8495  0.8495  0.5705

 Free energy of the ion-electron system (eV)
  ---------------------------------------------------
  alpha Z        PSCENC =       896.52650772
  Ewald energy   TEWEN  =    319989.21864464
  -Hartree energ DENC   =   -339152.66763518
  -exchange      EXHF   =         0.00000000
  -V(xc)+E(xc)   XCENC  =       738.63431684
  PAW double counting   =     33805.08889050   -33405.24624625
  entropy T*S    EENTRO =        -0.00000000
  eigenvalues    EBANDS =     -3206.44051006
  atomic energy  EATOM  =     19947.02745206
  Solvation  Ediel_sol  =         0.00000000
  ---------------------------------------------------
  free energy    TOTEN  =      -387.85857972 eV

  energy without entropy =     -387.85857972  energy(sigma->0) =     -387.85857972


--------------------------------------------------------------------------------------------------------




--------------------------------------- Iteration      1(  11)  ---------------------------------------


    POTLOK:  cpu time    0.0766: real time    0.0804
    SETDIJ:  cpu time    0.4136: real time    0.4135
     EDDAV:  cpu time    7.0664: real time    7.7586
       DOS:  cpu time    0.0009: real time    0.0009
    CHARGE:  cpu time    0.2377: real time    0.2377
    MIXING:  cpu time    0.0164: real time    0.0164
    --------------------------------------------
      LOOP:  cpu time    7.8116: real time    8.5075

 eigenvalue-minimisations  :  4944
 total energy-change (2. order) : 0.1254999E-01  (-0.2959694E-01)
 number of electron     287.9999866 magnetization 
 augmentation part       30.4120425 magnetization 

 Broyden mixing:
  rms(total) = 0.99636E-01    rms(broyden)= 0.99632E-01
  rms(prec ) = 0.10035E+00
  weight for this iteration     100.00

 eigenvalues of (default mixing * dielectric matrix)
  average eigenvalue GAMMA=   1.2791
  2.0312  2.0312  1.1258  1.1258  0.7869  0.5736

 Free energy of the ion-electron system (eV)
  ---------------------------------------------------
  alpha Z        PSCENC =       896.52650772
  Ewald energy   TEWEN  =    319989.21864464
  -Hartree energ DENC   =   -339162.73754491
  -exchange      EXHF   =         0.00000000
  -V(xc)+E(xc)   XCENC  =       738.65116418
  PAW double counting   =     33345.63186618   -32943.56981007
  entropy T*S    EENTRO =        -0.00000000
  eigenvalues    EBANDS =     -3198.59430954
  atomic energy  EATOM  =     19947.02745206
  Solvation  Ediel_sol  =         0.00000000
  ---------------------------------------------------
  free energy    TOTEN  =      -387.84602973 eV

  energy without entropy =     -387.84602973  energy(sigma->0) =     -387.84602973


--------------------------------------------------------------------------------------------------------




--------------------------------------- Iteration      1(  12)  ---------------------------------------


    POTLOK:  cpu time    0.0960: real time    0.0961
    SETDIJ:  cpu time    0.4346: real time    0.4348
     EDDAV:  cpu time    4.9467: real time    4.9499
       DOS:  cpu time    0.0011: real time    0.0015
    CHARGE:  cpu time    0.2527: real time    0.2527
    MIXING:  cpu time    0.0112: real time    0.0112
    --------------------------------------------
      LOOP:  cpu time    5.7424: real time    5.7462

 eigenvalue-minimisations  :  4528
 total energy-change (2. order) : 0.1670307E-02  (-0.1185960E-01)
 number of electron     287.9999865 magnetization 
 augmentation part       30.4280514 magnetization 

 Broyden mixing:
  rms(total) = 0.52835E-01    rms(broyden)= 0.52821E-01
  rms(prec ) = 0.53470E-01
  weight for this iteration     100.00

 eigenvalues of (default mixing * dielectric matrix)
  average eigenvalue GAMMA=   1.2956
  2.1492  2.1492  1.6693  0.8891  0.8891  0.5722  0.7511

 Free energy of the ion-electron system (eV)
  ---------------------------------------------------
  alpha Z        PSCENC =       896.52650772
  Ewald energy   TEWEN  =    319989.21864464
  -Hartree energ DENC   =   -339174.21453313
  -exchange      EXHF   =         0.00000000
  -V(xc)+E(xc)   XCENC  =       738.55296002
  PAW double counting   =     33419.80159099   -33015.60618648
  entropy T*S    EENTRO =        -0.00000000
  eigenvalues    EBANDS =     -3189.15079525
  atomic energy  EATOM  =     19947.02745206
  Solvation  Ediel_sol  =         0.00000000
  ---------------------------------------------------
  free energy    TOTEN  =      -387.84435942 eV

  energy without entropy =     -387.84435942  energy(sigma->0) =     -387.84435942


--------------------------------------------------------------------------------------------------------




--------------------------------------- Iteration      1(  13)  ---------------------------------------


    POTLOK:  cpu time    0.0987: real time    0.1020
    SETDIJ:  cpu time    0.4278: real time    0.4279
     EDDAV:  cpu time    6.7392: real time    6.8205
       DOS:  cpu time    0.0013: real time    0.0017
    CHARGE:  cpu time    0.3014: real time    0.3015
    MIXING:  cpu time    0.0078: real time    0.0078
    --------------------------------------------
      LOOP:  cpu time    7.5762: real time    7.6613

 eigenvalue-minimisations  :  5024
 total energy-change (2. order) : 0.1734399E-02  (-0.3409423E-02)
 number of electron     287.9999866 magnetization 
 augmentation part       30.4892743 magnetization 

 Broyden mixing:
  rms(total) = 0.40192E-01    rms(broyden)= 0.40189E-01
  rms(prec ) = 0.40703E-01
  weight for this iteration     100.00

 eigenvalues of (default mixing * dielectric matrix)
  average eigenvalue GAMMA=   1.2448
  2.3254  2.3254  1.4971  0.9017  0.9017  0.5846  0.7359  0.6868

 Free energy of the ion-electron system (eV)
  ---------------------------------------------------
  alpha Z        PSCENC =       896.52650772
  Ewald energy   TEWEN  =    319989.21864464
  -Hartree energ DENC   =   -339188.31868449
  -exchange      EXHF   =         0.00000000
  -V(xc)+E(xc)   XCENC  =       738.84797732
  PAW double counting   =     33444.42942369   -33039.07440873
  entropy T*S    EENTRO =        -0.00000000
  eigenvalues    EBANDS =     -3176.49953723
  atomic energy  EATOM  =     19947.02745206
  Solvation  Ediel_sol  =         0.00000000
  ---------------------------------------------------
  free energy    TOTEN  =      -387.84262502 eV

  energy without entropy =     -387.84262502  energy(sigma->0) =     -387.84262502


--------------------------------------------------------------------------------------------------------




--------------------------------------- Iteration      1(  14)  ---------------------------------------


    POTLOK:  cpu time    0.0816: real time    0.0841
    SETDIJ:  cpu time    0.4173: real time    0.4178
     EDDAV:  cpu time    6.1040: real time    6.1960
       DOS:  cpu time    0.0013: real time    0.0013
    CHARGE:  cpu time    0.2590: real time    0.2592
    MIXING:  cpu time    0.0039: real time    0.0039
    --------------------------------------------
      LOOP:  cpu time    6.8670: real time    6.9623

 eigenvalue-minimisations  :  4928
 total energy-change (2. order) : 0.1078754E-02  (-0.5973126E-03)
 number of electron     287.9999866 magnetization 
 augmentation part       30.4729960 magnetization 

 Broyden mixing:
  rms(total) = 0.17935E-01    rms(broyden)= 0.17934E-01
  rms(prec ) = 0.18609E-01
  weight for this iteration     100.00

 eigenvalues of (default mixing * dielectric matrix)
  average eigenvalue GAMMA=   1.2455
  2.3806  1.9518  1.9518  0.9377  0.9377  0.9953  0.8594  0.5782  0.6169

 Free energy of the ion-electron system (eV)
  ---------------------------------------------------
  alpha Z        PSCENC =       896.52650772
  Ewald energy   TEWEN  =    319989.21864464
  -Hartree energ DENC   =   -339193.57637711
  -exchange      EXHF   =         0.00000000
  -V(xc)+E(xc)   XCENC  =       738.84603621
  PAW double counting   =     33444.09269547   -33038.48085820
  entropy T*S    EENTRO =        -0.00000000
  eigenvalues    EBANDS =     -3171.49564707
  atomic energy  EATOM  =     19947.02745206
  Solvation  Ediel_sol  =         0.00000000
  ---------------------------------------------------
  free energy    TOTEN  =      -387.84154627 eV

  energy without entropy =     -387.84154627  energy(sigma->0) =     -387.84154627


--------------------------------------------------------------------------------------------------------




--------------------------------------- Iteration      1(  15)  ---------------------------------------


    POTLOK:  cpu time    0.0847: real time    0.0848
    SETDIJ:  cpu time    0.4077: real time    0.4077
     EDDAV:  cpu time    5.4342: real time    5.4581
       DOS:  cpu time    0.0010: real time    0.0014
    CHARGE:  cpu time    0.2500: real time    0.2502
    MIXING:  cpu time    0.0028: real time    0.0028
    --------------------------------------------
      LOOP:  cpu time    6.1804: real time    6.2050

 eigenvalue-minimisations  :  4976
 total energy-change (2. order) : 0.3895852E-03  (-0.2673008E-03)
 number of electron     287.9999865 magnetization 
 augmentation part       30.4588188 magnetization 

 Broyden mixing:
  rms(total) = 0.14454E-01    rms(broyden)= 0.14453E-01
  rms(prec ) = 0.15040E-01
  weight for this iteration     100.00

 eigenvalues of (default mixing * dielectric matrix)
  average eigenvalue GAMMA=   1.2549
  2.3276  2.1859  2.1859  1.0916  1.0916  0.8395  0.8395  0.8090  0.5786  0.5995

 Free energy of the ion-electron system (eV)
  ---------------------------------------------------
  alpha Z        PSCENC =       896.52650772
  Ewald energy   TEWEN  =    319989.21864464
  -Hartree energ DENC   =   -339198.30536044
  -exchange      EXHF   =         0.00000000
  -V(xc)+E(xc)   XCENC  =       738.80283194
  PAW double counting   =     33465.85649284   -33060.30279385
  entropy T*S    EENTRO =        -0.00000000
  eigenvalues    EBANDS =     -3166.66493160
  atomic energy  EATOM  =     19947.02745206
  Solvation  Ediel_sol  =         0.00000000
  ---------------------------------------------------
  free energy    TOTEN  =      -387.84115668 eV

  energy without entropy =     -387.84115668  energy(sigma->0) =     -387.84115668


--------------------------------------------------------------------------------------------------------




--------------------------------------- Iteration      1(  16)  ---------------------------------------


    POTLOK:  cpu time    0.0740: real time    0.0775
    SETDIJ:  cpu time    0.3551: real time    0.4028
     EDDAV:  cpu time    5.9926: real time    6.3434
       DOS:  cpu time    0.0010: real time    0.0010
    CHARGE:  cpu time    0.2411: real time    0.2848
    MIXING:  cpu time    0.0074: real time    0.0111
    --------------------------------------------
      LOOP:  cpu time    6.6712: real time    7.1207

 eigenvalue-minimisations  :  4688
 total energy-change (2. order) : 0.2585745E-03  (-0.8404188E-04)
 number of electron     287.9999865 magnetization 
 augmentation part       30.4637317 magnetization 

 Broyden mixing:
  rms(total) = 0.58708E-02    rms(broyden)= 0.58704E-02
  rms(prec ) = 0.68930E-02
  weight for this iteration     100.00

 eigenvalues of (default mixing * dielectric matrix)
  average eigenvalue GAMMA=   1.3246
  2.8361  2.3756  1.7538  1.7538  1.1003  1.1003  0.8243  0.8243  0.8387  0.5766
  0.5872

 Free energy of the ion-electron system (eV)
  ---------------------------------------------------
  alpha Z        PSCENC =       896.52650772
  Ewald energy   TEWEN  =    319989.21864464
  -Hartree energ DENC   =   -339203.41583691
  -exchange      EXHF   =         0.00000000
  -V(xc)+E(xc)   XCENC  =       738.83970846
  PAW double counting   =     33462.74635492   -33057.19942977
  entropy T*S    EENTRO =        -0.00000000
  eigenvalues    EBANDS =     -3161.58429923
  atomic energy  EATOM  =     19947.02745206
  Solvation  Ediel_sol  =         0.00000000
  ---------------------------------------------------
  free energy    TOTEN  =      -387.84089811 eV

  energy without entropy =     -387.84089811  energy(sigma->0) =     -387.84089811


--------------------------------------------------------------------------------------------------------




--------------------------------------- Iteration      1(  17)  ---------------------------------------


    POTLOK:  cpu time    0.0773: real time    0.0793
    SETDIJ:  cpu time    0.2677: real time    0.4327
     EDDAV:  cpu time    7.3467: real time    7.7225
       DOS:  cpu time    0.0018: real time    0.0024
    CHARGE:  cpu time    0.2709: real time    0.2708
    MIXING:  cpu time    0.0047: real time    0.0047
    --------------------------------------------
      LOOP:  cpu time    7.9690: real time    8.5124

 eigenvalue-minimisations  :  4288
 total energy-change (2. order) : 0.2923307E-03  (-0.5229310E-04)
 number of electron     287.9999865 magnetization 
 augmentation part       30.4640083 magnetization 

 Broyden mixing:
  rms(total) = 0.38515E-02    rms(broyden)= 0.38514E-02
  rms(prec ) = 0.48005E-02
  weight for this iteration     100.00

 eigenvalues of (default mixing * dielectric matrix)
  average eigenvalue GAMMA=   1.3239
  2.6466  2.1754  2.1754  2.1639  1.1282  1.1282  0.8382  0.8382  0.8162  0.8162
  0.5803  0.5803

 Free energy of the ion-electron system (eV)
  ---------------------------------------------------
  alpha Z        PSCENC =       896.52650772
  Ewald energy   TEWEN  =    319989.21864464
  -Hartree energ DENC   =   -339211.71880961
  -exchange      EXHF   =         0.00000000
  -V(xc)+E(xc)   XCENC  =       738.86993168
  PAW double counting   =     33460.09735355   -33054.45439814
  entropy T*S    EENTRO =        -0.00000000
  eigenvalues    EBANDS =     -3153.40728768
  atomic energy  EATOM  =     19947.02745206
  Solvation  Ediel_sol  =         0.00000000
  ---------------------------------------------------
  free energy    TOTEN  =      -387.84060577 eV

  energy without entropy =     -387.84060577  energy(sigma->0) =     -387.84060577


--------------------------------------------------------------------------------------------------------




--------------------------------------- Iteration      1(  18)  ---------------------------------------


    POTLOK:  cpu time    0.0827: real time    0.0846
    SETDIJ:  cpu time    0.4367: real time    0.4369
     EDDAV:  cpu time    6.0092: real time    6.0984
       DOS:  cpu time    0.0011: real time    0.0011
    CHARGE:  cpu time    0.1966: real time    0.1968
    MIXING:  cpu time    0.0054: real time    0.0054
    --------------------------------------------
      LOOP:  cpu time    6.7318: real time    6.8232

 eigenvalue-minimisations  :  4688
 total energy-change (2. order) : 0.3570218E-04  (-0.3265086E-04)
 number of electron     287.9999865 magnetization 
 augmentation part       30.4594019 magnetization 

 Broyden mixing:
  rms(total) = 0.43588E-02    rms(broyden)= 0.43587E-02
  rms(prec ) = 0.49735E-02
  weight for this iteration     100.00

 eigenvalues of (default mixing * dielectric matrix)
  average eigenvalue GAMMA=   1.3344
  3.0250  2.4011  2.4011  1.9300  1.1914  1.1914  0.9061  0.9061  0.7252  0.7252
  0.7826  0.5806  0.5806

 Free energy of the ion-electron system (eV)
  ---------------------------------------------------
  alpha Z        PSCENC =       896.52650772
  Ewald energy   TEWEN  =    319989.21864464
  -Hartree energ DENC   =   -339215.96266770
  -exchange      EXHF   =         0.00000000
  -V(xc)+E(xc)   XCENC  =       738.86040817
  PAW double counting   =     33460.50001034   -33054.96478025
  entropy T*S    EENTRO =        -0.00000000
  eigenvalues    EBANDS =     -3149.04614506
  atomic energy  EATOM  =     19947.02745206
  Solvation  Ediel_sol  =         0.00000000
  ---------------------------------------------------
  free energy    TOTEN  =      -387.84057007 eV

  energy without entropy =     -387.84057007  energy(sigma->0) =     -387.84057007


--------------------------------------------------------------------------------------------------------




--------------------------------------- Iteration      1(  19)  ---------------------------------------


    POTLOK:  cpu time    0.0672: real time    0.0673
    SETDIJ:  cpu time    0.4156: real time    0.4157
     EDDAV:  cpu time    5.2759: real time    5.5390
       DOS:  cpu time    0.0026: real time    0.0033
    CHARGE:  cpu time    0.2183: real time    0.2263
    MIXING:  cpu time    0.0155: real time    0.0155
    --------------------------------------------
      LOOP:  cpu time    5.9952: real time    6.2672

 eigenvalue-minimisations  :  4480
 total energy-change (2. order) :-0.2944413E-04  (-0.2358945E-04)
 number of electron     287.9999865 magnetization 
 augmentation part       30.4588633 magnetization 

 Broyden mixing:
  rms(total) = 0.35356E-02    rms(broyden)= 0.35355E-02
  rms(prec ) = 0.39858E-02
  weight for this iteration     100.00

[...]
  0.000   0.000  -0.022   0.000   0.000   0.021  -0.000   0.000   0.000  -0.189   0.000   0.000  -0.000   0.000   0.115   0.000
 -0.002   0.013   0.000   0.182  -0.000   0.000  -0.181  -0.000   0.000   0.000   0.167   0.000   0.000   0.000   0.000  -0.092
  0.000   0.000   0.000   0.000  -0.022   0.000   0.000   0.021   0.000   0.000   0.000  -0.189   0.000  -0.000   0.000  -0.000
  0.000   0.000   0.000   0.000   0.000  -0.000   0.000   0.000  -0.000   0.000   0.000   0.000  -0.312  -0.000   0.000   0.000
  0.000   0.000   0.000   0.000   0.110   0.000   0.000  -0.113   0.000   0.000   0.000  -0.176   0.000   0.000   0.000  -0.000


------------------------ aborting loop because EDIFF is reached ----------------------------------------


 


 total charge     
 
# of ion       s       p       d       f       tot
--------------------------------------------------
    1        2.160   6.402   0.964   0.105   9.631
    2        2.159   6.376   0.919   0.100   9.554
    3        2.160   6.402   0.964   0.105   9.631
    4        2.160   6.402   0.964   0.105   9.631
    5        2.159   6.376   0.919   0.100   9.554
    6        2.160   6.402   0.964   0.105   9.631
    7        2.160   6.402   0.964   0.105   9.631
    8        2.160   6.402   0.964   0.105   9.631
    9        0.578   1.041   2.739   0.000   4.358
   10        0.577   1.035   2.742   0.000   4.354
   11        0.577   1.034   2.742   0.000   4.353
   12        0.578   1.035   2.742   0.000   4.354
   13        0.577   1.035   2.742   0.000   4.354
   14        0.578   1.041   2.739   0.000   4.358
   15        0.578   1.035   2.742   0.000   4.354
   16        0.577   1.034   2.742   0.000   4.353
   17        1.317   2.439   0.000   0.000   3.756
   18        1.318   2.461   0.000   0.000   3.779
   19        1.318   2.461   0.000   0.000   3.779
   20        1.318   2.461   0.000   0.000   3.779
   21        1.318   2.461   0.000   0.000   3.779
   22        1.317   2.439   0.000   0.000   3.756
   23        1.318   2.461   0.000   0.000   3.779
   24        1.318   2.461   0.000   0.000   3.779
   25        1.575   3.429   0.000   0.000   5.004
   26        1.575   3.410   0.000   0.000   4.984
   27        1.552   3.536   0.000   0.000   5.087
   28        1.552   3.537   0.000   0.000   5.088
   29        1.575   3.410   0.000   0.000   4.985
   30        1.576   3.430   0.000   0.000   5.005
   31        1.575   3.410   0.000   0.000   4.985
   32        1.552   3.536   0.000   0.000   5.087
   33        1.552   3.536   0.000   0.000   5.087
   34        1.575   3.410   0.000   0.000   4.985
   35        1.576   3.430   0.000   0.000   5.005
   36        1.575   3.410   0.000   0.000   4.985
   37        1.552   3.537   0.000   0.000   5.088
   38        1.552   3.536   0.000   0.000   5.087
   39        1.575   3.410   0.000   0.000   4.984
   40        1.575   3.429   0.000   0.000   5.004
   41        1.575   3.410   0.000   0.000   4.985
   42        1.552   3.536   0.000   0.000   5.087
   43        1.552   3.536   0.000   0.000   5.087
   44        1.575   3.410   0.000   0.000   4.985
--------------------------------------------------
tot         63.755 148.385  29.549   0.830 242.519

 
    CHARGE:  cpu time    0.2171: real time    0.2174
    FORLOC:  cpu time    0.0071: real time    0.0071
    FORNL :  cpu time    0.4308: real time    0.4309
    STRESS:  cpu time    1.4760: real time    1.4765
    FORCOR:  cpu time    0.0725: real time    0.0725
    FORHAR:  cpu time    0.0202: real time    0.0202
    MIXING:  cpu time    0.0141: real time    0.0141
    OFIELD:  cpu time    0.0001: real time    0.0001

  FORCE on cell =-STRESS in cart. coord.  units (eV):
  Direction    XX          YY          ZZ          XY          YZ          ZX
  --------------------------------------------------------------------------------------
  Alpha Z   896.52651   896.52651   896.52651
  Ewald  331269.02879331269.02879************     0.00000    -0.00000    -0.00000
  Hartree336554.20574336554.20574************    -0.00000    -0.00000    -0.00000
  E(xc)   -1239.49217 -1239.49217 -1241.02368     0.00000     0.00000     0.00000
  Local  ************************672361.64955     0.00000     0.00000    -0.00000
  n-local  -315.04515  -324.54979  -322.42873   -10.79221     0.00000     0.00000
  augment   153.41947   153.41947   154.28178    -0.00000     0.00000    -0.00000
  Kinetic  4504.78470  4614.80531  4564.68657    -2.62765    -0.00000     0.00000
  Fock        0.00000     0.00000     0.00000     0.00000     0.00000     0.00000
  -------------------------------------------------------------------------------------
  Total      -3.31317    -3.31317     0.14673     0.00000     0.00000     0.00000
  in kB      -5.48342    -5.48342     0.24284     0.00000     0.00000     0.00000
  external pressure =       -3.57 kB  Pullay stress =        0.00 kB


 VOLUME and BASIS-vectors are now :
 -----------------------------------------------------------------------------
  energy-cutoff  :      520.00
  volume of cell :      968.06
      direct lattice vectors                 reciprocal lattice vectors
     3.770023000  0.000000000  0.000000000     0.265250371  0.000000000  0.000000000
     0.000000000  3.770023000  0.000000000     0.000000000  0.265250371  0.000000000
     0.000000000  0.000000000 68.110540000     0.000000000  0.000000000  0.014682015

  length of vectors
     3.770023000  3.770023000 68.110540000     0.265250371  0.265250371  0.014682015


 FORCES acting on ions
    electron-ion (+dipol)            ewald-force                    non-local-force                 convergence-correction
 -----------------------------------------------------------------------------------------------
   0.969E-13 -.315E-12 0.426E+03   -.256E-13 -.798E-14 -.426E+03   0.000E+00 0.000E+00 0.433E+00   -.119E-13 0.160E-13 0.206E-04
   0.561E-14 -.769E-12 0.631E+04   0.147E-13 0.215E-13 -.631E+04   0.000E+00 0.000E+00 -.253E+01   -.989E-15 -.508E-13 0.162E-03
   -.321E-14 0.151E-12 0.379E+04   0.743E-14 0.261E-13 -.379E+04   -.103E-24 0.207E-24 0.428E+00   -.294E-13 -.193E-13 -.383E-05
   0.106E-12 -.694E-12 0.294E+04   0.133E-13 0.150E-13 -.293E+04   -.517E-25 0.000E+00 -.431E+00   0.523E-13 -.470E-13 0.650E-04
   0.115E-12 0.860E-12 -.631E+04   0.147E-13 0.215E-13 0.631E+04   0.000E+00 0.000E+00 0.253E+01   0.944E-14 0.522E-13 -.162E-03
   -.762E-14 0.580E-12 -.426E+03   -.203E-13 -.912E-14 0.426E+03   0.000E+00 0.000E+00 -.433E+00   0.278E-13 -.135E-14 -.206E-04
   -.521E-14 0.543E-12 -.294E+04   0.655E-14 0.188E-13 0.293E+04   0.000E+00 -.103E-24 0.431E+00   -.373E-13 0.517E-13 -.650E-04
   0.732E-13 -.392E-12 -.379E+04   0.142E-13 0.223E-13 0.379E+04   0.000E+00 -.207E-24 -.428E+00   0.463E-13 -.456E-15 0.383E-05
   0.826E-14 -.324E-12 0.193E+04   -.866E-14 -.665E-14 -.193E+04   0.000E+00 0.000E+00 0.570E-01   0.388E-14 -.190E-13 0.209E-04
   -.263E-14 -.384E-12 0.511E+03   -.340E-14 -.824E-16 -.511E+03   0.000E+00 -.388E-25 -.323E-01   0.192E-14 0.236E-13 -.223E-05
   -.590E-15 -.351E-12 0.712E+03   -.171E-13 0.721E-14 -.712E+03   0.000E+00 0.646E-26 0.309E-01   -.598E-14 -.268E-13 0.264E-04
   0.825E-14 -.754E-14 0.173E+04   -.645E-14 -.617E-14 -.173E+04   0.000E+00 0.000E+00 -.365E-01   0.401E-14 0.190E-13 -.781E-04
   0.109E-13 0.403E-12 -.511E+03   -.335E-14 -.185E-16 0.511E+03   0.000E+00 -.194E-25 0.323E-01   -.126E-15 -.216E-13 0.223E-05
   0.655E-15 0.999E-13 -.193E+04   -.866E-14 -.665E-14 0.193E+04   0.000E+00 0.000E+00 -.570E-01   -.498E-14 0.199E-13 -.209E-04
   -.183E-14 0.172E-12 -.173E+04   -.648E-14 -.624E-14 0.173E+04   0.000E+00 0.000E+00 0.365E-01   -.727E-15 -.223E-13 0.781E-04
   0.590E-14 0.423E-12 -.712E+03   -.170E-13 0.727E-14 0.712E+03   0.000E+00 0.000E+00 -.309E-01   0.538E-14 0.266E-13 -.264E-04
   -.826E-14 -.369E-12 0.357E+04   0.275E-14 -.258E-14 -.357E+04   -.414E-24 0.000E+00 0.469E+00   0.104E-13 -.592E-14 0.101E-03
   0.473E-14 -.507E-12 0.866E+02   0.274E-13 0.452E-14 -.861E+02   0.000E+00 0.000E+00 -.446E+00   -.127E-13 0.230E-16 0.483E-05
   -.821E-14 0.115E-11 0.175E+04   -.144E-14 0.209E-15 -.175E+04   0.000E+00 0.000E+00 0.439E+00   -.103E-13 0.597E-14 0.394E-04
   -.359E-13 -.323E-12 0.192E+04   0.733E-14 -.610E-14 -.192E+04   0.000E+00 -.258E-25 -.443E+00   0.137E-13 0.618E-15 0.299E-04
   -.228E-13 0.827E-12 -.866E+02   0.181E-13 0.893E-14 0.861E+02   0.000E+00 0.000E+00 0.446E+00   0.468E-14 -.640E-14 -.483E-05
   0.759E-14 0.155E-12 -.357E+04   0.275E-14 -.258E-14 0.357E+04   0.414E-24 0.000E+00 -.469E+00   -.141E-13 0.228E-14 -.101E-03
   -.511E-14 0.748E-12 -.192E+04   0.121E-14 -.278E-14 0.192E+04   0.000E+00 0.000E+00 0.443E+00   -.166E-13 0.528E-14 -.299E-04
   -.920E-14 -.121E-11 -.175E+04   0.470E-14 -.311E-14 0.175E+04   0.000E+00 -.517E-25 -.439E+00   0.495E-14 -.512E-14 -.394E-04
   0.454E-14 -.190E-12 0.917E+03   0.143E-14 -.579E-14 -.917E+03   0.000E+00 0.517E-25 -.352E-02   -.208E-13 0.527E-14 0.196E-04
   0.673E-14 -.136E-11 0.295E+04   -.113E-13 -.141E-14 -.295E+04   0.000E+00 -.517E-25 -.159E+01   -.129E-13 -.549E-13 0.458E-04
   -.110E-14 0.102E-11 0.712E+03   -.299E-14 -.103E-14 -.714E+03   0.000E+00 0.000E+00 0.150E+01   0.218E-14 -.538E-13 0.738E-05
   0.134E-12 -.905E-12 0.295E+04   -.186E-13 -.608E-14 -.295E+04   0.414E-24 0.000E+00 -.159E+01   0.145E-13 0.738E-13 0.458E-04
   0.152E-12 0.241E-11 0.712E+03   -.126E-13 0.110E-13 -.714E+03   -.103E-24 0.000E+00 0.150E+01   -.111E-13 0.718E-13 0.738E-05
   0.158E-12 0.270E-12 0.275E+04   0.236E-14 -.531E-14 -.275E+04   -.258E-25 0.000E+00 0.159E+00   0.194E-13 -.898E-14 -.514E-04
   0.145E-12 0.799E-12 0.112E+04   0.762E-14 -.112E-13 -.112E+04   0.000E+00 0.000E+00 -.150E+01   0.850E-14 -.688E-13 0.460E-04
   0.134E-12 -.112E-11 0.255E+04   -.154E-13 -.441E-14 -.255E+04   0.000E+00 0.414E-24 0.148E+01   0.230E-13 -.722E-13 -.931E-04
   -.851E-14 -.113E-12 0.112E+04   -.126E-13 -.665E-14 -.112E+04   0.000E+00 0.517E-24 -.150E+01   -.234E-13 0.710E-13 0.460E-04
   0.726E-14 0.633E-12 0.255E+04   -.888E-14 0.308E-14 -.255E+04   -.207E-24 -.258E-25 0.148E+01   -.861E-14 0.342E-13 -.931E-04
   -.153E-13 0.288E-12 -.275E+04   0.343E-14 -.921E-14 0.275E+04   0.000E+00 0.000E+00 -.159E+00   -.246E-13 0.905E-14 0.514E-04
   -.114E-13 -.149E-11 -.712E+03   -.288E-14 0.634E-14 0.714E+03   0.103E-24 0.000E+00 -.150E+01   -.111E-14 -.688E-13 -.738E-05
   -.112E-13 0.184E-11 -.295E+04   -.191E-13 -.513E-14 0.295E+04   -.414E-24 0.000E+00 0.159E+01   -.225E-13 -.696E-13 -.458E-04
   0.146E-12 -.807E-12 -.712E+03   -.738E-14 -.702E-15 0.714E+03   0.129E-25 0.000E+00 -.150E+01   -.207E-14 0.520E-13 -.738E-05
   0.130E-12 0.142E-11 -.295E+04   -.117E-13 0.154E-14 0.295E+04   0.000E+00 0.000E+00 0.159E+01   0.103E-13 0.487E-13 -.458E-04
   0.130E-12 0.196E-12 -.917E+03   -.321E-14 -.140E-14 0.917E+03   0.000E+00 0.129E-25 0.352E-02   0.238E-13 -.451E-14 -.196E-04
   0.154E-12 -.543E-12 -.255E+04   -.363E-14 -.676E-16 0.255E+04   0.000E+00 0.517E-25 -.148E+01   0.300E-14 -.459E-13 0.931E-04
   0.127E-12 0.641E-12 -.112E+04   -.764E-14 -.940E-14 0.112E+04   0.000E+00 -.207E-24 0.150E+01   0.169E-13 -.756E-13 -.460E-04
   0.180E-14 0.543E-12 -.255E+04   -.203E-13 -.166E-14 0.255E+04   0.000E+00 -.827E-24 -.148E+01   -.210E-13 0.754E-13 0.931E-04
   -.712E-14 -.460E-12 -.112E+04   0.240E-14 -.802E-14 0.112E+04   0.000E+00 0.000E+00 0.150E+01   -.954E-14 0.706E-13 -.460E-04
 -----------------------------------------------------------------------------------------------
   0.171E-11 0.354E-11 0.577E-10   -.124E-12 0.378E-13 -.159E-11   -.375E-24 -.297E-24 -.666E-15   0.349E-14 -.141E-13 0.143E-10
 
 
 POSITION                                       TOTAL-FORCE (eV/Angst)
 -----------------------------------------------------------------------------------
      1.88501      1.88501     32.17610         0.000000      0.000000      0.000294
      0.00000      0.00000     13.23095         0.000000      0.000000      0.558048
      0.00000      0.00000     20.82432         0.000000      0.000000      0.003691
      1.88501      1.88501     24.58266         0.000000     -0.000000      0.001604
      1.88501      1.88501     54.87959         0.000000     -0.000000     -0.558048
      0.00000      0.00000     35.93444         0.000000     -0.000000     -0.000294
      0.00000      0.00000     43.52788         0.000000      0.000000     -0.001604
      1.88501      1.88501     47.28622         0.000000      0.000000     -0.003691
      1.88501      1.88501     15.20881         0.000000      0.000000     -0.212500
      0.00000      0.00000     30.19824        -0.000000     -0.000000      0.001640
      0.00000      0.00000     26.56052         0.000000     -0.000000     -0.000528
      1.88501      1.88501     18.84646         0.000000      0.000000      0.002863
      1.88501      1.88501     37.91230         0.000000      0.000000     -0.001640
      0.00000      0.00000     52.90173         0.000000      0.000000      0.212500
      0.00000      0.00000     49.26408         0.000000      0.000000     -0.002863
      1.88501      1.88501     41.55002         0.000000      0.000000      0.000528
      1.88501      1.88501     12.35546         0.000000      0.000000     -0.388964
      0.00000      0.00000     33.05159         0.000000     -0.000000     -0.004085
      0.00000      0.00000     23.70724         0.000000      0.000000     -0.001496
      1.88501      1.88501     21.69981         0.000000      0.000000     -0.001108
      1.88501      1.88501     35.05895         0.000000     -0.000000      0.004085
      0.00000      0.00000     55.75508         0.000000      0.000000      0.388964
      0.00000      0.00000     46.41073         0.000000      0.000000      0.001108
      1.88501      1.88501     44.40330         0.000000     -0.000000      0.001496
      0.00000      0.00000     28.37941         0.000000      0.000000     -0.005745
      0.00000      1.88501     14.73176         0.000000      0.000000     -0.010111
      0.00000      1.88501     30.67528         0.000000     -0.000000      0.005780
      1.88501      0.00000     14.73176         0.000000      0.000000     -0.010111
      1.88501      0.00000     30.67528         0.000000     -0.000000      0.005780
      1.88501      1.88501     17.02764         0.000000      0.000000      0.053856
      1.88501      0.00000     26.08354         0.000000      0.000000     -0.007315
      1.88501      0.00000     19.32351         0.000000      0.000000     -0.003566
      0.00000      1.88501     26.08354         0.000000      0.000000     -0.007315
      0.00000      1.88501     19.32351         0.000000      0.000000     -0.003566
      0.00000      0.00000     51.08290         0.000000     -0.000000     -0.053856
      0.00000      1.88501     37.43526         0.000000     -0.000000     -0.005780
      0.00000      1.88501     53.37878         0.000000     -0.000000      0.010111
      1.88501      0.00000     37.43526         0.000000      0.000000     -0.005780
      1.88501      0.00000     53.37878         0.000000      0.000000      0.010111
      1.88501      1.88501     39.73113         0.000000     -0.000000      0.005745
      1.88501      0.00000     48.78703        -0.000000     -0.000000      0.003566
      1.88501      0.00000     42.02700         0.000000      0.000000      0.007315
      0.00000      1.88501     48.78703        -0.000000     -0.000000      0.003566
      0.00000      1.88501     42.02700         0.000000     -0.000000      0.007315
 -----------------------------------------------------------------------------------
    total drift:                                0.000000      0.000000      0.000000


--------------------------------------------------------------------------------------------------------



  FREE ENERGIE OF THE ION-ELECTRON SYSTEM (eV)
  ---------------------------------------------------
  free  energy   TOTEN  =      -387.84217684 eV

  energy  without entropy=     -387.84217684  energy(sigma->0) =     -387.84217684
 


--------------------------------------------------------------------------------------------------------


    POTLOK:  cpu time    0.4833: real time    0.4840


--------------------------------------------------------------------------------------------------------


     LOOP+:  cpu time  244.0407: real time  251.5763
    4ORBIT:  cpu time    0.0000: real time    0.0000
 


 total charge     
 
# of ion       s       p       d       f       tot
--------------------------------------------------
    1        2.160   6.402   0.964   0.105   9.631
    2        2.159   6.376   0.919   0.100   9.554
    3        2.160   6.402   0.964   0.105   9.631
    4        2.160   6.402   0.964   0.105   9.631
    5        2.159   6.376   0.919   0.100   9.554
    6        2.160   6.402   0.964   0.105   9.631
    7        2.160   6.402   0.964   0.105   9.631
    8        2.160   6.402   0.964   0.105   9.631
    9        0.578   1.041   2.739   0.000   4.358
   10        0.577   1.035   2.742   0.000   4.354
   11        0.577   1.034   2.742   0.000   4.353
   12        0.578   1.035   2.742   0.000   4.354
   13        0.577   1.035   2.742   0.000   4.354
   14        0.578   1.041   2.739   0.000   4.358
   15        0.578   1.035   2.742   0.000   4.354
   16        0.577   1.034   2.742   0.000   4.353
   17        1.317   2.439   0.000   0.000   3.756
   18        1.318   2.461   0.000   0.000   3.779
   19        1.318   2.461   0.000   0.000   3.779
   20        1.318   2.461   0.000   0.000   3.779
   21        1.318   2.461   0.000   0.000   3.779
   22        1.317   2.439   0.000   0.000   3.756
   23        1.318   2.461   0.000   0.000   3.779
   24        1.318   2.461   0.000   0.000   3.779
   25        1.575   3.429   0.000   0.000   5.004
   26        1.575   3.410   0.000   0.000   4.984
   27        1.552   3.536   0.000   0.000   5.087
   28        1.552   3.537   0.000   0.000   5.088
   29        1.575   3.410   0.000   0.000   4.985
   30        1.576   3.430   0.000   0.000   5.005
   31        1.575   3.410   0.000   0.000   4.985
   32        1.552   3.536   0.000   0.000   5.087
   33        1.552   3.536   0.000   0.000   5.087
   34        1.575   3.410   0.000   0.000   4.985
   35        1.576   3.430   0.000   0.000   5.005
   36        1.575   3.410   0.000   0.000   4.985
   37        1.552   3.537   0.000   0.000   5.088
   38        1.552   3.536   0.000   0.000   5.087
   39        1.575   3.410   0.000   0.000   4.984
   40        1.575   3.429   0.000   0.000   5.004
   41        1.575   3.410   0.000   0.000   4.985
   42        1.552   3.536   0.000   0.000   5.087
   43        1.552   3.536   0.000   0.000   5.087
   44        1.575   3.410   0.000   0.000   4.985
--------------------------------------------------
tot         63.755 148.385  29.549   0.830 242.519

 

 total amount of memory used by VASP MPI-rank0    56176. kBytes
=======================================================================

   base      :      30000. kBytes
   nonlr-proj:      10233. kBytes
   fftplans  :       3420. kBytes
   grid      :       6430. kBytes
   one-center:        180. kBytes
   wavefun   :       5913. kBytes
 
  
  
 General timing and accounting informations for this job:
 ========================================================
  
                  Total CPU time used (sec):      283.512
                            User time (sec):      269.793
                          System time (sec):       13.719
                         Elapsed time (sec):      293.511
  
                   Maximum memory used (kb):      151696.
                   Average memory used (kb):           0.
  
                          Minor page faults:        71104
                          Major page faults:            0
                 Voluntary context switches:        74970
