 vasp.5.4.4.18Apr17-6-g9f103f2a35 (build Jun 20 2017 18:00:50) complex          
  
 executed on             LinuxIFC date 2020.05.13  10:40:00
 running on  256 total cores
 distrk:  each k-point on  128 cores,    2 groups
 distr:  one band on NCORES_PER_BAND=   8 cores,   16 groups


--------------------------------------------------------------------------------------------------------


 INCAR:
 POTCAR:    PAW_PBE Y_sv 25May2007                
 POTCAR:    PAW_PBE Ti 08Apr2002                  
 POTCAR:    PAW_PBE S 06Sep2000                   
 POTCAR:    PAW_PBE O 08Apr2002                   

 ----------------------------------------------------------------------------- 
|                                                                             |
|           W    W    AA    RRRRR   N    N  II  N    N   GGGG   !!!           |
|           W    W   A  A   R    R  NN   N  II  NN   N  G    G  !!!           |
|           W    W  A    A  R    R  N N  N  II  N N  N  G       !!!           |
|           W WW W  AAAAAA  RRRRR   N  N N  II  N  N N  G  GGG   !            |
|           WW  WW  A    A  R   R   N   NN  II  N   NN  G    G                |
|           W    W  A    A  R    R  N    N  II  N    N   GGGG   !!!           |
|                                                                             |
|      You have enabled k-point parallelism (KPAR>1).                         |
|      This developmental code was originally  written by Paul Kent at ORNL,  |
|      and carefully double checked in Vienna.                                |
|      GW as well as linear response parallelism added by Martijn Marsman     |
|      and Georg Kresse.                                                      |
|      Carefully verify results versus KPAR=1.                                |
|      Report problems to Paul Kent and Vienna.                               |
|                                                                             |
 ----------------------------------------------------------------------------- 

 POTCAR:    PAW_PBE Y_sv 25May2007                
   VRHFIN =Y: 4s4p5s4d                                                          
   LEXCH  = PE                                                                  
   EATOM  =  1046.9140 eV,   76.9460 Ry                                         
                                                                                
   TITEL  = PAW_PBE Y_sv 25May2007                                              
   LULTRA =        F    use ultrasoft PP ?                                      
   IUNSCR =        1    unscreen: 0-lin 1-nonlin 2-no                           
   RPACOR =    2.200    partial core radius                                     
   POMASS =   88.906; ZVAL   =   11.000    mass and valenz                      
   RCORE  =    2.800    outmost cutoff radius                                   
   RWIGS  =    3.430; RWIGS  =    1.815    wigner-seitz radius (au A)           
   ENMAX  =  202.626; ENMIN  =  151.970 eV                                      
   RCLOC  =    2.212    cutoff for local pot                                    
   LCOR   =        T    correct aug charges                                     
   LPAW   =        T    paw PP                                                  
   EAUG   =  470.889                                                            
   DEXC   =    0.000                                                            
   RMAX   =    2.863    core radius for proj-oper                               
   RAUG   =    1.300    factor for augmentation sphere                          
   RDEP   =    2.926    radius for radial grids                                 
   RDEPT  =    2.280    core radius for aug-charge                              
                                                                                
   Atomic configuration                                                         
   11 entries                                                                   
     n  l   j            E        occ.                                          
     1  0  0.50    -16863.0720   2.0000                                         
     2  0  0.50     -2309.2881   2.0000                                         
     2  1  1.50     -2055.5536   6.0000                                         
     3  0  0.50      -367.1837   2.0000                                         
     3  1  1.50      -284.8912   6.0000                                         
     3  2  2.50      -149.4324  10.0000                                         
     4  0  0.50       -46.3345   2.0000                                         
     5  0  0.50        -3.6387   1.0000                                         
     4  1  1.50       -26.3769   6.0000                                         
     4  2  2.50        -1.6291   2.0000                                         
     4  3  2.50        -1.3606   0.0000                                         
   Description                                                                  
     l       E           TYP  RCUT    TYP  RCUT                                 
     0    -46.3344714     23  2.600                                             
     0     -3.6387002     23  2.700                                             
     1    -26.3769044     23  2.600                                             
     1    -27.7374870     23  2.600                                             
     2     -1.6291019     23  2.600                                             
     2      0.1354037     23  2.600                                             
     3     -1.3605826     23  2.800                                             
  local pseudopotential read in
  partial core-charges read in
  partial kinetic energy density read in
  atomic valenz-charges read in
  non local Contribution for L=           0  read in
    real space projection operators read in
  non local Contribution for L=           0  read in
    real space projection operators read in
  non local Contribution for L=           1  read in
    real space projection operators read in
  non local Contribution for L=           1  read in
    real space projection operators read in
  non local Contribution for L=           2  read in
    real space projection operators read in
  non local Contribution for L=           2  read in
    real space projection operators read in
  non local Contribution for L=           3  read in
    real space projection operators read in
    PAW grid and wavefunctions read in
 
   number of l-projection  operators is LMAX  =           7
   number of lm-projection operators is LMMAX =          25
 
 POTCAR:    PAW_PBE Ti 08Apr2002                  
   VRHFIN =Ti: d3 s1                                                            
   LEXCH  = PE                                                                  
   EATOM  =    94.7928 eV,    6.9671 Ry                                         
                                                                                
   TITEL  = PAW_PBE Ti 08Apr2002                                                
   LULTRA =        F    use ultrasoft PP ?                                      
   IUNSCR =        1    unscreen: 0-lin 1-nonlin 2-no                           
   RPACOR =    2.200    partial core radius                                     
   POMASS =   47.880; ZVAL   =    4.000    mass and valenz                      
   RCORE  =    2.800    outmost cutoff radius                                   
   RWIGS  =    2.500; RWIGS  =    1.323    wigner-seitz radius (au A)           
   ENMAX  =  178.330; ENMIN  =  133.747 eV                                      
   RCLOC  =    2.215    cutoff for local pot                                    
   LCOR   =        T    correct aug charges                                     
   LPAW   =        T    paw PP                                                  
   EAUG   =  328.883                                                            
   DEXC   =    0.000                                                            
   RMAX   =    2.868    core radius for proj-oper                               
   RAUG   =    1.300    factor for augmentation sphere                          
   RDEP   =    2.885    radius for radial grids                                 
   RDEPT  =    2.320    core radius for aug-charge                              
                                                                                
   Atomic configuration                                                         
    9 entries                                                                   
     n  l   j            E        occ.                                          
     1  0  0.50     -4865.3608   2.0000                                         
     2  0  0.50      -533.1367   2.0000                                         
     2  1  1.50      -440.5031   6.0000                                         
     3  0  0.50       -59.3186   2.0000                                         
     3  1  1.50       -35.7012   6.0000                                         
     3  2  2.50        -1.9157   3.0000                                         
     4  0  0.50        -3.7291   1.0000                                         
     4  1  1.50        -4.0817   0.0000                                         
     4  3  2.50        -1.3606   0.0000                                         
   Description                                                                  
     l       E           TYP  RCUT    TYP  RCUT                                 
     2     -1.9156924     23  2.800                                             
     2     -0.4062961     23  2.800                                             
     0     -3.7290832     23  2.800                                             
     0     20.4087390     23  2.800                                             
     1     -5.4423304     23  2.800                                             
  local pseudopotential read in
  partial core-charges read in
  partial kinetic energy density read in
  atomic valenz-charges read in
  non local Contribution for L=           2  read in
    real space projection operators read in
  non local Contribution for L=           2  read in
    real space projection operators read in
  non local Contribution for L=           0  read in
    real space projection operators read in
  non local Contribution for L=           0  read in
    real space projection operators read in
  non local Contribution for L=           1  read in
    real space projection operators read in
    PAW grid and wavefunctions read in
 
   number of l-projection  operators is LMAX  =           5
   number of lm-projection operators is LMMAX =          15
 
 POTCAR:    PAW_PBE S 06Sep2000                   
   VRHFIN =S : s2p4                                                             
   LEXCH  = PE                                                                  
   EATOM  =   276.8230 eV,   20.3459 Ry                                         
                                                                                
   TITEL  = PAW_PBE S 06Sep2000                                                 
   LULTRA =        F    use ultrasoft PP ?                                      
   IUNSCR =        1    unscreen: 0-lin 1-nonlin 2-no                           
   RPACOR =    1.500    partial core radius                                     
   POMASS =   32.066; ZVAL   =    6.000    mass and valenz                      
   RCORE  =    1.900    outmost cutoff radius                                   
   RWIGS  =    2.200; RWIGS  =    1.164    wigner-seitz radius (au A)           
   ENMAX  =  258.689; ENMIN  =  194.016 eV                                      
   ICORE  =        2    local potential                                         
   LCOR   =        T    correct aug charges                                     
   LPAW   =        T    paw PP                                                  
   EAUG   =  335.092                                                            
   DEXC   =    0.000                                                            
   RMAX   =    1.942    core radius for proj-oper                               
   RAUG   =    1.300    factor for augmentation sphere                          
   RDEP   =    1.954    radius for radial grids                                 
   RDEPT  =    1.744    core radius for aug-charge                              
                                                                                
   Atomic configuration                                                         
    6 entries                                                                   
     n  l   j            E        occ.                                          
     1  0  0.50     -2405.8406   2.0000                                         
     2  0  0.50      -211.7007   2.0000                                         
     2  1  1.50      -156.4958   6.0000                                         
     3  0  0.50       -17.2562   2.0000                                         
     3  1  0.50        -7.0085   4.0000                                         
     3  2  1.50        -6.8029   0.0000                                         
   Description                                                                  
     l       E           TYP  RCUT    TYP  RCUT                                 
     0    -17.2561641     23  1.900                                             
     0    -15.8743224     23  1.900                                             
     1     -7.0085400     23  1.900                                             
     1     -2.7779785     23  1.900                                             
     2     -6.8029130     23  1.900                                             
  local pseudopotential read in
  partial core-charges read in
  partial kinetic energy density read in
  atomic valenz-charges read in
  non local Contribution for L=           0  read in
    real space projection operators read in
  non local Contribution for L=           0  read in
    real space projection operators read in
  non local Contribution for L=           1  read in
    real space projection operators read in
  non local Contribution for L=           1  read in
    real space projection operators read in
    PAW grid and wavefunctions read in
 
   number of l-projection  operators is LMAX  =           4
   number of lm-projection operators is LMMAX =           8
 
 POTCAR:    PAW_PBE O 08Apr2002                   
   VRHFIN =O: s2p4                                                              
   LEXCH  = PE                                                                  
   EATOM  =   432.3788 eV,   31.7789 Ry                                         
                                                                                
   TITEL  = PAW_PBE O 08Apr2002                                                 
   LULTRA =        F    use ultrasoft PP ?                                      
   IUNSCR =        1    unscreen: 0-lin 1-nonlin 2-no                           
   RPACOR =    1.200    partial core radius                                     
   POMASS =   16.000; ZVAL   =    6.000    mass and valenz                      
   RCORE  =    1.520    outmost cutoff radius                                   
   RWIGS  =    1.550; RWIGS  =    0.820    wigner-seitz radius (au A)           
   ENMAX  =  400.000; ENMIN  =  300.000 eV                                      
   ICORE  =        2    local potential                                         
   LCOR   =        T    correct aug charges                                     
   LPAW   =        T    paw PP                                                  
   EAUG   =  605.392                                                            
   DEXC   =    0.000                                                            
   RMAX   =    1.553    core radius for proj-oper                               
   RAUG   =    1.300    factor for augmentation sphere                          
   RDEP   =    1.550    radius for radial grids                                 
   RDEPT  =    1.329    core radius for aug-charge                              
                                                                                
   Atomic configuration                                                         
    4 entries                                                                   
     n  l   j            E        occ.                                          
     1  0  0.50      -514.6923   2.0000                                         
     2  0  0.50       -23.9615   2.0000                                         
     2  1  0.50        -9.0305   4.0000                                         
     3  2  1.50        -9.5241   0.0000                                         
   Description                                                                  
     l       E           TYP  RCUT    TYP  RCUT                                 
     0    -23.9615318     23  1.200                                             
     0     -9.5240782     23  1.200                                             
     1     -9.0304911     23  1.520                                             
     1      8.1634956     23  1.520                                             
     2     -9.5240782      7  1.500                                             
  local pseudopotential read in
  partial core-charges read in
  partial kinetic energy density read in
  kinetic energy density of atom read in
  atomic valenz-charges read in
  non local Contribution for L=           0  read in
    real space projection operators read in
  non local Contribution for L=           0  read in
    real space projection operators read in
  non local Contribution for L=           1  read in
    real space projection operators read in
  non local Contribution for L=           1  read in
    real space projection operators read in
    PAW grid and wavefunctions read in
 
   number of l-projection  operators is LMAX  =           4
   number of lm-projection operators is LMMAX =           8
 
 Optimization of the real space projectors (new method)

 maximal supplied QI-value         = 13.42
 optimisation between [QCUT,QGAM] = [ 11.67, 23.35] = [ 38.16,152.62] Ry 
 Optimized for a Real-space Cutoff    1.68 Angstroem

   l    n(q)    QCUT    max X(q) W(low)/X(q) W(high)/X(q)  e(spline) 
   0     12    11.673    14.902    0.22E-04    0.24E-05    0.52E-07
   0     12    11.673     9.294    0.34E-04    0.58E-05    0.89E-07
   1     11    11.673    69.520    0.10E-04    0.47E-04    0.49E-06
   1     11    11.673    72.085    0.10E-04    0.48E-04    0.50E-06
   2     11    11.673    62.934    0.94E-04    0.14E-04    0.82E-06
   2     11    11.673    49.749    0.91E-04    0.13E-04    0.79E-06
   3     10    11.673     8.311    0.92E-04    0.21E-04    0.59E-06
 Optimization of the real space projectors (new method)

 maximal supplied QI-value         = 13.42
 optimisation between [QCUT,QGAM] = [ 11.67, 23.35] = [ 38.16,152.62] Ry 
 Optimized for a Real-space Cutoff    1.58 Angstroem

   l    n(q)    QCUT    max X(q) W(low)/X(q) W(high)/X(q)  e(spline) 
   2     10    11.673    49.363    0.16E-03    0.28E-03    0.91E-06
   2     10    11.673    47.669    0.16E-03    0.27E-03    0.88E-06
   0     11    11.673    26.374    0.54E-04    0.10E-03    0.52E-06
   0     11    11.673    11.549    0.41E-04    0.83E-04    0.43E-06
   1     11    11.673     9.492    0.36E-04    0.11E-04    0.17E-06
 Optimization of the real space projectors (new method)

 maximal supplied QI-value         = 19.84
 optimisation between [QCUT,QGAM] = [ 11.51, 23.22] = [ 37.09,150.92] Ry 
 Optimized for a Real-space Cutoff    1.21 Angstroem

   l    n(q)    QCUT    max X(q) W(low)/X(q) W(high)/X(q)  e(spline) 
   0      8    11.508   187.594    0.96E-04    0.18E-03    0.54E-07
   0      8    11.508   164.243    0.96E-04    0.18E-03    0.54E-07
   1      8    11.508    67.533    0.18E-03    0.65E-04    0.94E-07
   1      8    11.508    50.729    0.18E-03    0.63E-04    0.92E-07
 Optimization of the real space projectors (new method)

 maximal supplied QI-value         = 24.76
 optimisation between [QCUT,QGAM] = [ 11.64, 23.27] = [ 37.91,151.63] Ry 
 Optimized for a Real-space Cutoff    1.14 Angstroem

   l    n(q)    QCUT    max X(q) W(low)/X(q) W(high)/X(q)  e(spline) 
   0      8    11.635    20.381    0.10E-03    0.33E-03    0.24E-06
   0      8    11.635    15.268    0.11E-03    0.35E-03    0.26E-06
   1      7    11.635     5.964    0.24E-03    0.31E-03    0.30E-06
   1      7    11.635     5.382    0.22E-03    0.25E-03    0.26E-06

 ----------------------------------------------------------------------------- 
|                                                                             |
|  ADVICE TO THIS USER RUNNING 'VASP/VAMP'   (HEAR YOUR MASTER'S VOICE ...):  |
|                                                                             |
|      You enforced a specific xc-type in the INCAR file,                     |
|      a different type was found on the POTCAR file                          |
|          I HOPE YOU KNOW, WHAT YOU ARE  DOING                               |
|                                                                             |
 ----------------------------------------------------------------------------- 

  PAW_PBE Y_sv 25May2007                :
 energy of atom  1       EATOM=-1046.9140
 kinetic energy error for atom=    0.0008 (will be added to EATOM!!)
  PAW_PBE Ti 08Apr2002                  :
 energy of atom  2       EATOM=  -94.7928
 kinetic energy error for atom=    0.0002 (will be added to EATOM!!)
  PAW_PBE S 06Sep2000                   :
 energy of atom  3       EATOM= -276.8230
 kinetic energy error for atom=    0.0016 (will be added to EATOM!!)
  PAW_PBE O 08Apr2002                   :
 energy of atom  4       EATOM= -432.3788
 kinetic energy error for atom=    0.0208 (will be added to EATOM!!)
 
 
 POSCAR: Y8 Ti8 S8 O20                           
  positions in direct lattice
  No initial velocities read in
 exchange correlation table for  LEXCH =       14
   RHO(1)=    0.500       N(1)  =     2000
   RHO(2)=  100.500       N(2)  =     4000
 


--------------------------------------------------------------------------------------------------------


 ion  position               nearest neighbor table
   1  0.500  0.500  0.483-  27 2.41  29 2.41  29 2.41  27 2.41  18 2.81  18 2.81  18 2.81  18 2.81
                            21 2.88  10 3.32  10 3.32  10 3.32  10 3.32
   2  0.000  0.000  0.317-  26 2.41  28 2.41  26 2.41  28 2.41  17 2.81  17 2.81  17 2.81  17 2.81
                             9 3.32   9 3.32   9 3.32   9 3.32
   3  0.000  0.000  0.383-  32 2.41  34 2.41  34 2.41  32 2.41  20 2.81  20 2.81  20 2.81  20 2.81
                            19 2.88  12 3.32  12 3.32  12 3.32  12 3.32
   4  0.500  0.500  0.417-  31 2.41  33 2.41  31 2.41  33 2.41  19 2.81  19 2.81  19 2.81  19 2.81
                            20 2.88  11 3.32  11 3.32  11 3.32  11 3.32
   5  0.500  0.500  0.683-  37 2.41  39 2.41  39 2.41  37 2.41  22 2.81  22 2.81  22 2.81  22 2.81
                            14 3.32  14 3.32  14 3.32  14 3.32
   6  0.000  0.000  0.517-  36 2.41  38 2.41  36 2.41  38 2.41  21 2.81  21 2.81  21 2.81  21 2.81
                            18 2.88  13 3.32  13 3.32  13 3.32  13 3.32
   7  0.000  0.000  0.583-  42 2.41  44 2.41  44 2.41  42 2.41  24 2.81  24 2.81  24 2.81  24 2.81
                            23 2.88  16 3.32  16 3.32  16 3.32  16 3.32
   8  0.500  0.500  0.617-  41 2.41  43 2.41  41 2.41  43 2.41  23 2.81  23 2.81  23 2.81  23 2.81
                            24 2.88  15 3.32  15 3.32  15 3.32  15 3.32
   9  0.500  0.500  0.334-  30 1.82  28 1.94  26 1.94  28 1.94  26 1.94  17 2.85   2 3.32   2 3.32
                             2 3.32   2 3.32
  10  0.000  0.000  0.466-  25 1.82  27 1.94  29 1.94  27 1.94  29 1.94  18 2.85   1 3.32   1 3.32
                             1 3.32   1 3.32
  11  0.000  0.000  0.434-  25 1.82  31 1.94  33 1.94  33 1.94  31 1.94  19 2.85   4 3.32   4 3.32
                             4 3.32   4 3.32
  12  0.500  0.500  0.366-  30 1.82  32 1.94  34 1.94  32 1.94  34 1.94  20 2.85   3 3.32   3 3.32
                             3 3.32   3 3.32
  13  0.500  0.500  0.534-  40 1.82  38 1.94  36 1.94  38 1.94  36 1.94  21 2.85   6 3.32   6 3.32
                             6 3.32   6 3.32
  14  0.000  0.000  0.666-  35 1.82  37 1.94  39 1.94  37 1.94  39 1.94  22 2.85   5 3.32   5 3.32
                             5 3.32   5 3.32
  15  0.000  0.000  0.634-  35 1.82  41 1.94  43 1.94  43 1.94  41 1.94  23 2.85   8 3.32   8 3.32
                             8 3.32   8 3.32
  16  0.500  0.500  0.566-  40 1.82  42 1.94  44 1.94  42 1.94  44 1.94  24 2.85   7 3.32   7 3.32
                             7 3.32   7 3.32
  17  0.500  0.500  0.309-   2 2.81   2 2.81   2 2.81   2 2.81   9 2.85
  18  0.000  0.000  0.491-   1 2.81   1 2.81   1 2.81   1 2.81  10 2.85   6 2.88
  19  0.000  0.000  0.409-   4 2.81   4 2.81   4 2.81   4 2.81  11 2.85   3 2.88
  20  0.500  0.500  0.391-   3 2.81   3 2.81   3 2.81   3 2.81  12 2.85   4 2.88
  21  0.500  0.500  0.509-   6 2.81   6 2.81   6 2.81   6 2.81  13 2.85   1 2.88
  22  0.000  0.000  0.691-   5 2.81   5 2.81   5 2.81   5 2.81  14 2.85
  23  0.000  0.000  0.609-   8 2.81   8 2.81   8 2.81   8 2.81  15 2.85   7 2.88
  24  0.500  0.500  0.591-   7 2.81   7 2.81   7 2.81   7 2.81  16 2.85   8 2.88
  25  0.000  0.000  0.450-  10 1.82  11 1.82
  26  0.000  0.500  0.330-   9 1.94   9 1.94   2 2.41   2 2.41
  27  0.000  0.500  0.470-  10 1.94  10 1.94   1 2.41   1 2.41
  28  0.500  0.000  0.330-   9 1.94   9 1.94   2 2.41   2 2.41
  29  0.500  0.000  0.470-  10 1.94  10 1.94   1 2.41   1 2.41
  30  0.500  0.500  0.350-  12 1.82   9 1.82
  31  0.500  0.000  0.430-  11 1.94  11 1.94   4 2.41   4 2.41
  32  0.500  0.000  0.370-  12 1.94  12 1.94   3 2.41   3 2.41
  33  0.000  0.500  0.430-  11 1.94  11 1.94   4 2.41   4 2.41
  34  0.000  0.500  0.370-  12 1.94  12 1.94   3 2.41   3 2.41
  35  0.000  0.000  0.650-  15 1.82  14 1.82
  36  0.000  0.500  0.530-  13 1.94  13 1.94   6 2.41   6 2.41
  37  0.000  0.500  0.670-  14 1.94  14 1.94   5 2.41   5 2.41
  38  0.500  0.000  0.530-  13 1.94  13 1.94   6 2.41   6 2.41
  39  0.500  0.000  0.670-  14 1.94  14 1.94   5 2.41   5 2.41
  40  0.500  0.500  0.550-  13 1.82  16 1.82
  41  0.500  0.000  0.630-  15 1.94  15 1.94   8 2.41   8 2.41
  42  0.500  0.000  0.570-  16 1.94  16 1.94   7 2.41   7 2.41
  43  0.000  0.500  0.630-  15 1.94  15 1.94   8 2.41   8 2.41
  44  0.000  0.500  0.570-  16 1.94  16 1.94   7 2.41   7 2.41
 
  LATTYP: Found a simple tetragonal cell.
 ALAT       =     3.7700230000
 C/A-ratio  =    30.1105767790
  
  Lattice vectors:
  
 A1 = (   3.7700230000,   0.0000000000,   0.0000000000)
 A2 = (   0.0000000000,   3.7700230000,   0.0000000000)
 A3 = (   0.0000000000,   0.0000000000, 113.5175670000)


Analysis of symmetry for initial positions (statically):
=====================================================================
 Subroutine PRICEL returns:
 Original cell was already a primitive cell.
 

 Routine SETGRP: Setting up the symmetry group for a 
 simple tetragonal supercell.


 Subroutine GETGRP returns: Found 16 space group operations
 (whereof  8 operations were pure point group operations)
 out of a pool of 16 trial point group operations.


The static configuration has the point symmetry C_4v.
 The point group associated with its full space group is D_4h.


Analysis of symmetry for dynamics (positions and initial velocities):
=====================================================================
 Subroutine PRICEL returns:
 Original cell was already a primitive cell.
 

 Routine SETGRP: Setting up the symmetry group for a 
 simple tetragonal supercell.


 Subroutine GETGRP returns: Found 16 space group operations
 (whereof  8 operations were pure point group operations)
 out of a pool of 16 trial point group operations.


The dynamic configuration has the point symmetry C_4v.
 The point group associated with its full space group is D_4h.


 Subroutine INISYM returns: Found 16 space group operations
 (whereof  8 operations are pure point group operations),
 and found     1 'primitive' translations

 
 
 KPOINTS: Automatic mesh                          

Automatic generation of k-mesh.
Space group operators:
 irot       det(A)        alpha          n_x          n_y          n_z        tau_x        tau_y        tau_z
    1     1.000000     0.000000     1.000000     0.000000     0.000000     0.000000     0.000000     0.000000
    2     1.000000    90.000000     0.000000     0.000000    -1.000000     0.000000     0.000000     0.000000
    3     1.000000   180.000000     0.000000     0.000000     1.000000     0.000000     0.000000     0.000000
    4     1.000000    90.000000     0.000000     0.000000     1.000000     0.000000     0.000000     0.000000
    5    -1.000000   180.000000     0.000000     1.000000     0.000000     0.000000     0.000000     0.000000
    6    -1.000000   180.000000     0.707107     0.707107     0.000000     0.000000     0.000000     0.000000
    7    -1.000000   180.000000     1.000000     0.000000     0.000000     0.000000     0.000000     0.000000
    8    -1.000000   180.000000     0.707107    -0.707107     0.000000     0.000000     0.000000     0.000000
    9    -1.000000     0.000000     1.000000     0.000000     0.000000     0.500000     0.500000     0.000000
   10    -1.000000    90.000000     0.000000     0.000000    -1.000000     0.500000     0.500000     0.000000
   11    -1.000000   180.000000     0.000000     0.000000     1.000000     0.500000     0.500000     0.000000
   12    -1.000000    90.000000     0.000000     0.000000     1.000000     0.500000     0.500000     0.000000
   13     1.000000   180.000000     0.000000     1.000000     0.000000     0.500000     0.500000     0.000000
   14     1.000000   180.000000     0.707107     0.707107     0.000000     0.500000     0.500000     0.000000
   15     1.000000   180.000000     1.000000     0.000000     0.000000     0.500000     0.500000     0.000000
   16     1.000000   180.000000     0.707107    -0.707107     0.000000     0.500000     0.500000     0.000000
 
 Subroutine IBZKPT returns following result:
 ===========================================
 
 Found     10 irreducible k-points:
 
 Following reciprocal coordinates:
            Coordinates               Weight
  0.000000  0.000000  0.000000      1.000000
  0.166667  0.000000  0.000000      4.000000
  0.333333  0.000000  0.000000      4.000000
  0.500000  0.000000  0.000000      2.000000
  0.166667  0.166667  0.000000      4.000000
  0.333333  0.166667  0.000000      8.000000
  0.500000  0.166667  0.000000      4.000000
  0.333333  0.333333  0.000000      4.000000
  0.500000  0.333333  0.000000      4.000000
  0.500000  0.500000  0.000000      1.000000
 
 Following cartesian coordinates:
            Coordinates               Weight
  0.000000  0.000000  0.000000      1.000000
  0.044208  0.000000  0.000000      4.000000
  0.088417  0.000000  0.000000      4.000000
  0.132625  0.000000  0.000000      2.000000
  0.044208  0.044208  0.000000      4.000000
  0.088417  0.044208  0.000000      8.000000
  0.132625  0.044208  0.000000      4.000000
  0.088417  0.088417  0.000000      4.000000
  0.132625  0.088417  0.000000      4.000000
  0.132625  0.132625  0.000000      1.000000
 


--------------------------------------------------------------------------------------------------------




 Dimension of arrays:
   k-points           NKPTS =     10   k-points in BZ     NKDIM =     10   number of bands    NBANDS=    176
   number of dos      NEDOS =   2000   number of ions     NIONS =     44
   non local maximal  LDIM  =      7   non local SUM 2l+1 LMDIM =     25
   total plane-waves  NPLWV = 677376
   max r-space proj   IRMAX =   8329   max aug-charges    IRDMAX=  30462
   dimension x,y,z NGX =    28 NGY =   28 NGZ =  864
   dimension x,y,z NGXF=    56 NGYF=   56 NGZF= 1728
   support grid    NGXF=    56 NGYF=   56 NGZF= 1728
   ions per type =               8   8   8  20
   NGX,Y,Z   is equivalent  to a cutoff of  12.35, 12.35, 12.65 a.u.
   NGXF,Y,Z  is equivalent  to a cutoff of  24.69, 24.69, 25.31 a.u.

 SYSTEM =  Generic Input                           
 POSCAR =  Y8 Ti8 S8 O20                           

 Startparameter for this run:
   NWRITE =      2    write-flag & timer
   PREC   = accura    normal or accurate (medium, high low for compatibility)
   ISTART =      0    job   : 0-new  1-cont  2-samecut
   ICHARG =      2    charge: 1-file 2-atom 10-const
   ISPIN  =      1    spin polarized calculation?
   LNONCOLLINEAR =      F non collinear calculations
   LSORBIT =      F    spin-orbit coupling
   INIWAV =      1    electr: 0-lowe 1-rand  2-diag
   LASPH  =      T    aspherical Exc in radial PAW
   METAGGA=      F    non-selfconsistent MetaGGA calc.

 Electronic Relaxation 1
   ENCUT  =  520.0 eV  38.22 Ry    6.18 a.u.   7.01  7.01211.07*2*pi/ulx,y,z
   ENINI  =  520.0     initial cutoff
   ENAUG  =  605.4 eV  augmentation charge cutoff
   NELM   =    200;   NELMIN=  2; NELMDL=  0     # of ELM steps 
   EDIFF  = 0.1E-05   stopping-criterion for ELM
   LREAL  =      T    real-space projection
   NLSPLINE    = F    spline interpolate recip. space projectors
   LCOMPAT=      F    compatible to vasp.4.4
   GGA_COMPAT  = T    GGA compatible to vasp.4.4-vasp.4.6
   LMAXPAW     = -100 max onsite density
   LMAXMIX     =    2 max onsite mixed and CHGCAR
   VOSKOWN=      0    Vosko Wilk Nusair interpolation
   ROPT   =   -0.00025  -0.00025  -0.00025  -0.00025
 Ionic relaxation
   EDIFFG = -.1E-01   stopping-criterion for IOM
   NSW    =      0    number of steps for IOM
   NBLOCK =      1;   KBLOCK =      1    inner block; outer block 
   IBRION =     -1    ionic relax: 0-MD 1-quasi-New 2-CG
   NFREE  =      0    steps in history (QN), initial steepest desc. (CG)
   ISIF   =      2    stress and relaxation
   IWAVPR =     11    prediction:  0-non 1-charg 2-wave 3-comb
   ISYM   =      2    0-nonsym 1-usesym 2-fastsym
   LCORR  =      T    Harris-Foulkes like correction to forces

   POTIM  = 0.5000    time-step for ionic-motion
   TEIN   =    0.0    initial temperature
   TEBEG  =    0.0;   TEEND  =   0.0 temperature during run
   SMASS  =  -3.00    Nose mass-parameter (am)
   estimated Nose-frequenzy (Omega)   =  0.10E-29 period in steps =****** mass=  -0.325E-27a.u.
   SCALEE = 1.0000    scale energy and forces
   NPACO  =    256;   APACO  = 16.0  distance and # of slots for P.C.
   PSTRESS=    0.0 pullay stress

  Mass of Ions in am
   POMASS =  88.91 47.88 32.07 16.00
  Ionic Valenz
   ZVAL   =  11.00  4.00  6.00  6.00
  Atomic Wigner-Seitz radii
   RWIGS  =  -1.00 -1.00 -1.00 -1.00
  virtual crystal weights 
   VCA    =   1.00  1.00  1.00  1.00
   NELECT =     288.0000    total number of electrons
   NUPDOWN=      -1.0000    fix difference up-down

 DOS related values:
   EMIN   =  10.00;   EMAX   =-10.00  energy-range for DOS
   EFERMI =   0.00
   ISMEAR =     0;   SIGMA  =   0.02  broadening in eV -4-tet -1-fermi 0-gaus

 Electronic relaxation 2 (details)
   IALGO  =     38    algorithm
   LDIAG  =      T    sub-space diagonalisation (order eigenvalues)
   LSUBROT=      F    optimize rotation matrix (better conditioning)
   TURBO    =      0    0=normal 1=particle mesh
   IRESTART =      0    0=no restart 2=restart with 2 vectors
   NREBOOT  =      0    no. of reboots
   NMIN     =      0    reboot dimension
   EREF     =   0.00    reference energy to select bands
   IMIX   =      4    mixing-type and parameters
     AMIX     =   0.40;   BMIX     =  1.00
     AMIX_MAG =   1.60;   BMIX_MAG =  1.00
     AMIN     =   0.05
     WC   =   100.;   INIMIX=   1;  MIXPRE=   1;  MAXMIX= -45

 Intra band minimization:
   WEIMIN = 0.0000     energy-eigenvalue tresh-hold
   EBREAK =  0.14E-08  absolut break condition
   DEPER  =   0.30     relativ break condition  

   TIME   =   0.40     timestep for ELM

  volume/ion in A,a.u.               =      36.67       247.45
  Fermi-wavevector in a.u.,A,eV,Ry     =   0.921769  1.741890 11.560293  0.849658
  Thomas-Fermi vector in A             =   2.047222
 
 Write flags
   LWAVE        =      F    write WAVECAR
   LDOWNSAMPLE  =      F    k-point downsampling of WAVECAR
   LCHARG       =      F    write CHGCAR
   LVTOT        =      F    write LOCPOT, total local potential
   LVHAR        =      T    write LOCPOT, Hartree potential only
   LELF         =      F    write electronic localiz. function (ELF)
   LORBIT       =     11    0 simple, 1 ext, 2 COOP (PROOUT), +10 PAW based schemes


 Dipole corrections
   LMONO  =      F    monopole corrections only (constant potential shift)
   LDIPOL =      F    correct potential (dipole corrections)
   IDIPOL =      0    1-x, 2-y, 3-z, 4-all directions 
   EPSILON=  1.0000000 bulk dielectric constant

 Core level calculations are selected ICORELEVEL =  1
 Exchange correlation treatment:
   GGA     =    PS    GGA type
   LEXCH   =    14    internal setting for exchange type
   VOSKOWN=      0    Vosko Wilk Nusair interpolation
   LHFCALC =     F    Hartree Fock is set to
   LHFONE  =     F    Hartree Fock one center treatment
   AEXX    =    0.0000 exact exchange contribution

 Linear response parameters
   LEPSILON=     F    determine dielectric tensor
   LRPA    =     F    only Hartree local field effects (RPA)
   LNABLA  =     F    use nabla operator in PAW spheres
   LVEL    =     F    velocity operator in full k-point grid
   LINTERFAST=   F  fast interpolation
   KINTER  =     0    interpolate to denser k-point grid
   CSHIFT  =0.1000    complex shift for real part using Kramers Kronig
   OMEGAMAX=  -1.0    maximum frequency
   DEG_THRESHOLD= 0.2000000E-02 threshold for treating states as degnerate
   RTIME   =   -0.100 relaxation time in fs
  (WPLASMAI=    0.000 imaginary part of plasma frequency in eV, 0.658/RTIME)
   DFIELD  = 0.0000000 0.0000000 0.0000000 field for delta impulse in time
 
 Orbital magnetization related:
   ORBITALMAG=     F  switch on orbital magnetization
   LCHIMAG   =     F  perturbation theory with respect to B field
   DQ        =  0.001000  dq finite difference perturbation B field
   LLRAUG    =     F  two centre corrections for induced B field



--------------------------------------------------------------------------------------------------------


 Static calculation
 charge density and potential will be updated during run
 non-spin polarized calculation
 Variant of blocked Davidson
 Davidson routine will perform the subspace rotation
 perform sub-space diagonalisation
    after iterative eigenvector-optimisation
 modified Broyden-mixing scheme, WC =      100.0
 initial mixing is a Kerker type mixing with AMIX =  0.4000 and BMIX =      1.0000
 Hartree-type preconditioning will be used
 using additional bands           32
 real space projection scheme for non local part
 use partial core corrections
 calculate Harris-corrections to forces 
   (improved forces if not selfconsistent)
 use gradient corrections 
 use of overlap-Matrix (Vanderbilt PP)
 Gauss-broadening in eV      SIGMA  =   0.02


--------------------------------------------------------------------------------------------------------


  energy-cutoff  :      520.00
  volume of cell :     1613.43
      direct lattice vectors                 reciprocal lattice vectors
     3.770023000  0.000000000  0.000000000     0.265250371  0.000000000  0.000000000
     0.000000000  3.770023000  0.000000000     0.000000000  0.265250371  0.000000000
     0.000000000  0.000000000113.517567000     0.000000000  0.000000000  0.008809209

  length of vectors
     3.770023000  3.770023000113.517567000     0.265250371  0.265250371  0.008809209


 
 k-points in units of 2pi/SCALE and weight: Automatic mesh                          
   0.00000000  0.00000000  0.00000000       0.028
   0.04420840  0.00000000  0.00000000       0.111
   0.08841679  0.00000000  0.00000000       0.111
   0.13262519  0.00000000  0.00000000       0.056
   0.04420840  0.04420840  0.00000000       0.111
   0.08841679  0.04420840  0.00000000       0.222
   0.13262519  0.04420840  0.00000000       0.111
   0.08841679  0.08841679  0.00000000       0.111
   0.13262519  0.08841679  0.00000000       0.111
   0.13262519  0.13262519  0.00000000       0.028
 
 k-points in reciprocal lattice and weights: Automatic mesh                          
   0.00000000  0.00000000  0.00000000       0.028
   0.16666667  0.00000000  0.00000000       0.111
   0.33333333  0.00000000  0.00000000       0.111
   0.50000000  0.00000000  0.00000000       0.056
   0.16666667  0.16666667  0.00000000       0.111
   0.33333333  0.16666667  0.00000000       0.222
   0.50000000  0.16666667  0.00000000       0.111
   0.33333333  0.33333333  0.00000000       0.111
   0.50000000  0.33333333  0.00000000       0.111
   0.50000000  0.50000000  0.00000000       0.028
 
 position of ions in fractional coordinates (direct lattice) 
   0.50000000  0.50000000  0.48344600
   0.00000000  0.00000000  0.31655400
   0.00000000  0.00000000  0.38344600
   0.50000000  0.50000000  0.41655400
   0.50000000  0.50000000  0.68344600
   0.00000000  0.00000000  0.51655400
   0.00000000  0.00000000  0.58344600
   0.50000000  0.50000000  0.61655400
   0.50000000  0.50000000  0.33397700
   0.00000000  0.00000000  0.46602300
   0.00000000  0.00000000  0.43397700
   0.50000000  0.50000000  0.36602300
   0.50000000  0.50000000  0.53397700
   0.00000000  0.00000000  0.66602300
   0.00000000  0.00000000  0.63397700
   0.50000000  0.50000000  0.56602300
   0.50000000  0.50000000  0.30884200
   0.00000000  0.00000000  0.49115800
   0.00000000  0.00000000  0.40884200
   0.50000000  0.50000000  0.39115800
   0.50000000  0.50000000  0.50884200
   0.00000000  0.00000000  0.69115800
   0.00000000  0.00000000  0.60884200
   0.50000000  0.50000000  0.59115800
   0.00000000  0.00000000  0.45000000
   0.00000000  0.50000000  0.32977500
   0.00000000  0.50000000  0.47022500
   0.50000000  0.00000000  0.32977500
   0.50000000  0.00000000  0.47022500
   0.50000000  0.50000000  0.35000000
   0.50000000  0.00000000  0.42977500
   0.50000000  0.00000000  0.37022500
   0.00000000  0.50000000  0.42977500
   0.00000000  0.50000000  0.37022500
   0.00000000  0.00000000  0.65000000
   0.00000000  0.50000000  0.52977500
   0.00000000  0.50000000  0.67022500
   0.50000000  0.00000000  0.52977500
   0.50000000  0.00000000  0.67022500
   0.50000000  0.50000000  0.55000000
   0.50000000  0.00000000  0.62977500
   0.50000000  0.00000000  0.57022500
   0.00000000  0.50000000  0.62977500
   0.00000000  0.50000000  0.57022500
 
 position of ions in cartesian coordinates  (Angst):
   1.88501150  1.88501150 54.87961370
   0.00000000  0.00000000 35.93443990
   0.00000000  0.00000000 43.52785700
   1.88501150  1.88501150 47.28619660
   1.88501150  1.88501150 77.58312710
   0.00000000  0.00000000 58.63795330
   0.00000000  0.00000000 66.23137040
   1.88501150  1.88501150 69.98971000
   1.88501150  1.88501150 37.91225647
   0.00000000  0.00000000 52.90179713
   0.00000000  0.00000000 49.26401317
   1.88501150  1.88501150 41.55004043
   1.88501150  1.88501150 60.61576987
   0.00000000  0.00000000 75.60531053
   0.00000000  0.00000000 71.96752657
   1.88501150  1.88501150 64.25355383
   1.88501150  1.88501150 35.05899243
   0.00000000  0.00000000 55.75506117
   0.00000000  0.00000000 46.41074913
   1.88501150  1.88501150 44.40330447
   1.88501150  1.88501150 57.76250583
   0.00000000  0.00000000 78.45857457
   0.00000000  0.00000000 69.11426253
   1.88501150  1.88501150 67.10681787
   0.00000000  0.00000000 51.08290515
   0.00000000  1.88501150 37.43525566
   0.00000000  1.88501150 53.37879794
   1.88501150  0.00000000 37.43525566
   1.88501150  0.00000000 53.37879794
   1.88501150  1.88501150 39.73114845
   1.88501150  0.00000000 48.78701236
   1.88501150  0.00000000 42.02704124
   0.00000000  1.88501150 48.78701236
   0.00000000  1.88501150 42.02704124
   0.00000000  0.00000000 73.78641855
   0.00000000  1.88501150 60.13876906
   0.00000000  1.88501150 76.08231134
   1.88501150  0.00000000 60.13876906
   1.88501150  0.00000000 76.08231134
   1.88501150  1.88501150 62.43466185
   1.88501150  0.00000000 71.49052576
   1.88501150  0.00000000 64.73055464
   0.00000000  1.88501150 71.49052576
   0.00000000  1.88501150 64.73055464
 


--------------------------------------------------------------------------------------------------------


 k-point  1 :   0.0000 0.0000 0.0000  plane waves:   42979
 k-point  2 :   0.1667 0.0000 0.0000  plane waves:   43198
 k-point  3 :   0.3333 0.0000 0.0000  plane waves:   43326
 k-point  4 :   0.5000 0.0000 0.0000  plane waves:   43502
 k-point  5 :   0.1667 0.1667 0.0000  plane waves:   43358
 k-point  6 :   0.3333 0.1667 0.0000  plane waves:   43454
 k-point  7 :   0.5000 0.1667 0.0000  plane waves:   43604
 k-point  8 :   0.3333 0.3333 0.0000  plane waves:   43582
 k-point  9 :   0.5000 0.3333 0.0000  plane waves:   43568
 k-point 10 :   0.5000 0.5000 0.0000  plane waves:   43556

 maximum and minimum number of plane-waves per node :      5476     5336

 maximum number of plane-waves:     43604
 maximum index in each direction: 
   IXMAX=    7   IYMAX=    7   IZMAX=  211
   IXMIN=   -7   IYMIN=   -7   IZMIN= -211


 real space projection operators:
  total allocation   :      23587.22 KBytes
  max/ min on nodes  :       3337.05       2545.31


 parallel 3D FFT for wavefunctions:
    minimum data exchange during FFTs selected (reduces bandwidth)
 parallel 3D FFT for charge:
    minimum data exchange during FFTs selected (reduces bandwidth)


 total amount of memory used by VASP MPI-rank0    66920. kBytes
=======================================================================

   base      :      30000. kBytes
   nonlr-proj:      10342. kBytes
   fftplans  :       5753. kBytes
   grid      :      10846. kBytes
   one-center:        180. kBytes
   wavefun   :       9799. kBytes
 
     INWAV:  cpu time    0.0000: real time    0.0000
 Broyden mixing: mesh for mixing (old mesh)
   NGX = 15   NGY = 15   NGZ =423
  (NGX  = 56   NGY  = 56   NGZ  =***)
  gives a total of  95175 points

 initial charge density was supplied:
 charge density of overlapping atoms calculated
 number of electron     288.0000000 magnetization 
 keeping initial charge density in first step


--------------------------------------------------------------------------------------------------------


 Maximum index for non-local projection operator         1248
 Maximum index for augmentation-charges         1163 (set IRDMAX)


--------------------------------------------------------------------------------------------------------


 First call to EWALD:  gamma=   0.151
 Maximum number of real-space cells 8x 8x 1
 Maximum number of reciprocal cells 1x 1x22

    FEWALD:  cpu time    0.0187: real time    0.0187


--------------------------------------- Iteration      1(   1)  ---------------------------------------


    POTLOK:  cpu time    0.1607: real time    0.1635
    SETDIJ:  cpu time    0.4224: real time    0.4226
     EDDAV:  cpu time    7.0487: real time    7.0513
       DOS:  cpu time    0.0024: real time    0.0024
    --------------------------------------------
      LOOP:  cpu time    7.6343: real time    7.6398

 eigenvalue-minimisations  :  3664
 total energy-change (2. order) : 0.3166101E+04  (-0.1226688E+05)
 number of electron     288.0000000 magnetization 
 augmentation part      288.0000000 magnetization 

 Free energy of the ion-electron system (eV)
  ---------------------------------------------------
  alpha Z        PSCENC =       537.91590305
  Ewald energy   TEWEN  =   1786890.02072388
  -Hartree energ DENC   =  -1804484.77080631
  -exchange      EXHF   =         0.00000000
  -V(xc)+E(xc)   XCENC  =       711.77847690
  PAW double counting   =     16075.50318149   -15645.87640431
  entropy T*S    EENTRO =        -0.00389444
  eigenvalues    EBANDS =      -865.49328806
  atomic energy  EATOM  =     19947.02745206
  Solvation  Ediel_sol  =         0.00000000
  ---------------------------------------------------
  free energy    TOTEN  =      3166.10134428 eV

  energy without entropy =     3166.10523872  energy(sigma->0) =     3166.10329150


--------------------------------------------------------------------------------------------------------




--------------------------------------- Iteration      1(   2)  ---------------------------------------


     EDDAV:  cpu time    9.3585: real time    9.3645
       DOS:  cpu time    0.0015: real time    0.0019
    --------------------------------------------
      LOOP:  cpu time    9.3600: real time    9.3665

 eigenvalue-minimisations  :  4224
 total energy-change (2. order) :-0.2895107E+04  (-0.2756960E+04)
 number of electron     288.0000000 magnetization 
 augmentation part      288.0000000 magnetization 

 Free energy of the ion-electron system (eV)
  ---------------------------------------------------
  alpha Z        PSCENC =       537.91590305
  Ewald energy   TEWEN  =   1786890.02072388
  -Hartree energ DENC   =  -1804484.77080631
  -exchange      EXHF   =         0.00000000
  -V(xc)+E(xc)   XCENC  =       711.77847690
  PAW double counting   =     16075.50318149   -15645.87640431
  entropy T*S    EENTRO =        -0.00125884
  eigenvalues    EBANDS =     -3760.60243532
  atomic energy  EATOM  =     19947.02745206
  Solvation  Ediel_sol  =         0.00000000
  ---------------------------------------------------
  free energy    TOTEN  =       270.99483262 eV

  energy without entropy =      270.99609146  energy(sigma->0) =      270.99546204


--------------------------------------------------------------------------------------------------------




--------------------------------------- Iteration      1(   3)  ---------------------------------------


     EDDAV:  cpu time    9.3436: real time    9.3504
       DOS:  cpu time    0.0019: real time    0.0026
    --------------------------------------------
      LOOP:  cpu time    9.3455: real time    9.3530

 eigenvalue-minimisations  :  4864
 total energy-change (2. order) :-0.6990373E+03  (-0.6903459E+03)
 number of electron     288.0000000 magnetization 
 augmentation part      288.0000000 magnetization 

 Free energy of the ion-electron system (eV)
  ---------------------------------------------------
  alpha Z        PSCENC =       537.91590305
  Ewald energy   TEWEN  =   1786890.02072388
  -Hartree energ DENC   =  -1804484.77080631
  -exchange      EXHF   =         0.00000000
  -V(xc)+E(xc)   XCENC  =       711.77847690
  PAW double counting   =     16075.50318149   -15645.87640431
  entropy T*S    EENTRO =        -0.00000000
  eigenvalues    EBANDS =     -4459.64094993
  atomic energy  EATOM  =     19947.02745206
  Solvation  Ediel_sol  =         0.00000000
  ---------------------------------------------------
  free energy    TOTEN  =      -428.04242315 eV

  energy without entropy =     -428.04242315  energy(sigma->0) =     -428.04242315


--------------------------------------------------------------------------------------------------------




--------------------------------------- Iteration      1(   4)  ---------------------------------------


     EDDAV:  cpu time   10.3433: real time   11.2581
       DOS:  cpu time    0.0023: real time    0.0038
    --------------------------------------------
      LOOP:  cpu time   10.3455: real time   11.2619

 eigenvalue-minimisations  :  4672
 total energy-change (2. order) :-0.4078071E+02  (-0.4063042E+02)
 number of electron     288.0000000 magnetization 
 augmentation part      288.0000000 magnetization 

 Free energy of the ion-electron system (eV)
  ---------------------------------------------------
  alpha Z        PSCENC =       537.91590305
  Ewald energy   TEWEN  =   1786890.02072388
  -Hartree energ DENC   =  -1804484.77080631
  -exchange      EXHF   =         0.00000000
  -V(xc)+E(xc)   XCENC  =       711.77847690
  PAW double counting   =     16075.50318149   -15645.87640431
  entropy T*S    EENTRO =        -0.00000000
  eigenvalues    EBANDS =     -4500.42165926
  atomic energy  EATOM  =     19947.02745206
  Solvation  Ediel_sol  =         0.00000000
  ---------------------------------------------------
  free energy    TOTEN  =      -468.82313249 eV

  energy without entropy =     -468.82313249  energy(sigma->0) =     -468.82313249


--------------------------------------------------------------------------------------------------------




--------------------------------------- Iteration      1(   5)  ---------------------------------------


     EDDAV:  cpu time   12.5399: real time   13.1625
       DOS:  cpu time    0.0045: real time    0.0049
    CHARGE:  cpu time    0.4983: real time    0.4985
    MIXING:  cpu time    0.0066: real time    0.0066
    --------------------------------------------
      LOOP:  cpu time   13.0493: real time   13.6724

 eigenvalue-minimisations  :  6464
 total energy-change (2. order) :-0.3666595E+01  (-0.3664627E+01)
 number of electron     287.9999815 magnetization 
 augmentation part       29.9037733 magnetization 

 Broyden mixing:
  rms(total) = 0.12178E+02    rms(broyden)= 0.12178E+02
  rms(prec ) = 0.12186E+02
  weight for this iteration     100.00

 Free energy of the ion-electron system (eV)
  ---------------------------------------------------
  alpha Z        PSCENC =       537.91590305
  Ewald energy   TEWEN  =   1786890.02072388
  -Hartree energ DENC   =  -1804484.77080631
  -exchange      EXHF   =         0.00000000
  -V(xc)+E(xc)   XCENC  =       711.77847690
  PAW double counting   =     16075.50318149   -15645.87640431
  entropy T*S    EENTRO =        -0.00000000
  eigenvalues    EBANDS =     -4504.08825468
  atomic energy  EATOM  =     19947.02745206
  Solvation  Ediel_sol  =         0.00000000
  ---------------------------------------------------
  free energy    TOTEN  =      -472.48972790 eV

  energy without entropy =     -472.48972790  energy(sigma->0) =     -472.48972790


--------------------------------------------------------------------------------------------------------




--------------------------------------- Iteration      1(   6)  ---------------------------------------


    POTLOK:  cpu time    0.1268: real time    0.1286
    SETDIJ:  cpu time    0.4285: real time    0.4286
     EDDAV:  cpu time   11.7823: real time   11.9063
       DOS:  cpu time    0.0015: real time    0.0019
    CHARGE:  cpu time    0.5109: real time    0.5109
    MIXING:  cpu time    0.0084: real time    0.0084
    --------------------------------------------
      LOOP:  cpu time   12.8584: real time   12.9847

 eigenvalue-minimisations  :  5104
 total energy-change (2. order) : 0.8305265E+02  (-0.5081399E+02)
 number of electron     287.9999868 magnetization 
 augmentation part       33.1247979 magnetization 

 Broyden mixing:
  rms(total) = 0.75022E+01    rms(broyden)= 0.75018E+01
  rms(prec ) = 0.75034E+01
  weight for this iteration     100.00

 eigenvalues of (default mixing * dielectric matrix)
  average eigenvalue GAMMA=   1.1018
  1.1018

 Free energy of the ion-electron system (eV)
  ---------------------------------------------------
  alpha Z        PSCENC =       537.91590305
  Ewald energy   TEWEN  =   1786890.02072388
  -Hartree energ DENC   =  -1804901.39202782
  -exchange      EXHF   =         0.00000000
  -V(xc)+E(xc)   XCENC  =       746.13331101
  PAW double counting   =     21948.04747701   -21540.05230215
  entropy T*S    EENTRO =        -0.00000000
  eigenvalues    EBANDS =     -4017.13761357
  atomic energy  EATOM  =     19947.02745206
  Solvation  Ediel_sol  =         0.00000000
  ---------------------------------------------------
  free energy    TOTEN  =      -389.43707653 eV

  energy without entropy =     -389.43707653  energy(sigma->0) =     -389.43707653


--------------------------------------------------------------------------------------------------------




--------------------------------------- Iteration      1(   7)  ---------------------------------------


    POTLOK:  cpu time    0.1753: real time    0.1797
    SETDIJ:  cpu time    0.4155: real time    0.4193
     EDDAV:  cpu time    9.4790: real time    9.6106
       DOS:  cpu time    0.0019: real time    0.0022
    CHARGE:  cpu time    0.3769: real time    0.3786
    MIXING:  cpu time    0.0072: real time    0.0072
    --------------------------------------------
      LOOP:  cpu time   10.4558: real time   10.5977

 eigenvalue-minimisations  :  4960
 total energy-change (2. order) :-0.4264321E+01  (-0.1554074E+02)
 number of electron     287.9999848 magnetization 
 augmentation part       29.2314957 magnetization 

 Broyden mixing:
  rms(total) = 0.55664E+01    rms(broyden)= 0.55664E+01
  rms(prec ) = 0.55678E+01
  weight for this iteration     100.00

 eigenvalues of (default mixing * dielectric matrix)
  average eigenvalue GAMMA=   1.9400
  0.7195  3.1604

 Free energy of the ion-electron system (eV)
  ---------------------------------------------------
  alpha Z        PSCENC =       537.91590305
  Ewald energy   TEWEN  =   1786890.02072388
  -Hartree energ DENC   =  -1804795.62996952
  -exchange      EXHF   =         0.00000000
  -V(xc)+E(xc)   XCENC  =       733.15005528
  PAW double counting   =     26399.40271294   -26003.86555226
  entropy T*S    EENTRO =        -0.00000000
  eigenvalues    EBANDS =     -4101.72272312
  atomic energy  EATOM  =     19947.02745206
  Solvation  Ediel_sol  =         0.00000000
  ---------------------------------------------------
  free energy    TOTEN  =      -393.70139768 eV

  energy without entropy =     -393.70139768  energy(sigma->0) =     -393.70139768


--------------------------------------------------------------------------------------------------------




--------------------------------------- Iteration      1(   8)  ---------------------------------------


    POTLOK:  cpu time    0.1926: real time    0.1949
    SETDIJ:  cpu time    0.7004: real time    0.7005
     EDDAV:  cpu time    8.6373: real time    8.6859
       DOS:  cpu time    0.0012: real time    0.0016
    CHARGE:  cpu time    0.7234: real time    0.7286
    MIXING:  cpu time    0.0070: real time    0.0080
    --------------------------------------------
      LOOP:  cpu time   10.2620: real time   10.3194

 eigenvalue-minimisations  :  5088
 total energy-change (2. order) : 0.2792299E+01  (-0.5811545E+01)
 number of electron     287.9999860 magnetization 
 augmentation part       33.2131283 magnetization 

 Broyden mixing:
  rms(total) = 0.27355E+01    rms(broyden)= 0.27354E+01
  rms(prec ) = 0.27385E+01
  weight for this iteration     100.00

 eigenvalues of (default mixing * dielectric matrix)
  average eigenvalue GAMMA=   1.3658
  2.3630  1.1244  0.6098

 Free energy of the ion-electron system (eV)
  ---------------------------------------------------
  alpha Z        PSCENC =       537.91590305
  Ewald energy   TEWEN  =   1786890.02072388
  -Hartree energ DENC   =  -1804885.82379082
  -exchange      EXHF   =         0.00000000
  -V(xc)+E(xc)   XCENC  =       739.63277409
  PAW double counting   =     36835.02296441   -36443.68946043
  entropy T*S    EENTRO =        -0.00126710
  eigenvalues    EBANDS =     -4011.01439781
  atomic energy  EATOM  =     19947.02745206
  Solvation  Ediel_sol  =         0.00000000
  ---------------------------------------------------
  free energy    TOTEN  =      -390.90909867 eV

  energy without entropy =     -390.90783157  energy(sigma->0) =     -390.90846512


--------------------------------------------------------------------------------------------------------




--------------------------------------- Iteration      1(   9)  ---------------------------------------


    POTLOK:  cpu time    0.1831: real time    0.1893
    SETDIJ:  cpu time    0.5219: real time    0.5312
     EDDAV:  cpu time   11.1380: real time   11.4545
       DOS:  cpu time    0.0016: real time    0.0020
    CHARGE:  cpu time    0.3459: real time    0.3459
    MIXING:  cpu time    0.0071: real time    0.0071
    --------------------------------------------
      LOOP:  cpu time   12.1974: real time   12.5299

 eigenvalue-minimisations  :  4736
 total energy-change (2. order) : 0.2855381E+01  (-0.2419523E+01)
 number of electron     287.9999852 magnetization 
 augmentation part       30.0791753 magnetization 

 Broyden mixing:
  rms(total) = 0.54032E+00    rms(broyden)= 0.54024E+00
  rms(prec ) = 0.54120E+00
  weight for this iteration     100.00

 eigenvalues of (default mixing * dielectric matrix)
  average eigenvalue GAMMA=   1.3487
  2.5721  1.1197  1.1197  0.5833

 Free energy of the ion-electron system (eV)
  ---------------------------------------------------
  alpha Z        PSCENC =       537.91590305
  Ewald energy   TEWEN  =   1786890.02072388
  -Hartree energ DENC   =  -1804868.12601231
  -exchange      EXHF   =         0.00000000
  -V(xc)+E(xc)   XCENC  =       736.54918107
  PAW double counting   =     33404.84167599   -33009.52380408
  entropy T*S    EENTRO =        -0.00000000
  eigenvalues    EBANDS =     -4026.75883719
  atomic energy  EATOM  =     19947.02745206
  Solvation  Ediel_sol  =         0.00000000
  ---------------------------------------------------
  free energy    TOTEN  =      -388.05371753 eV

  energy without entropy =     -388.05371753  energy(sigma->0) =     -388.05371753


--------------------------------------------------------------------------------------------------------




--------------------------------------- Iteration      1(  10)  ---------------------------------------


    POTLOK:  cpu time    0.1094: real time    0.1134
    SETDIJ:  cpu time    0.4235: real time    0.4234
     EDDAV:  cpu time    9.1793: real time    9.3144
       DOS:  cpu time    0.0011: real time    0.0011
    CHARGE:  cpu time    0.4392: real time    0.4393
    MIXING:  cpu time    0.0133: real time    0.0133
    --------------------------------------------
      LOOP:  cpu time   10.1657: real time   10.3050

 eigenvalue-minimisations  :  5072
 total energy-change (2. order) : 0.1932453E+00  (-0.2613892E+00)
 number of electron     287.9999854 magnetization 
 augmentation part       30.5399925 magnetization 

 Broyden mixing:
  rms(total) = 0.34425E+00    rms(broyden)= 0.34424E+00
  rms(prec ) = 0.34445E+00
  weight for this iteration     100.00

 eigenvalues of (default mixing * dielectric matrix)
  average eigenvalue GAMMA=   1.2450
  1.9781  1.9781  0.8491  0.8491  0.5704

 Free energy of the ion-electron system (eV)
  ---------------------------------------------------
  alpha Z        PSCENC =       537.91590305
  Ewald energy   TEWEN  =   1786890.02072388
  -Hartree energ DENC   =  -1804918.70021921
  -exchange      EXHF   =         0.00000000
  -V(xc)+E(xc)   XCENC  =       738.66191458
  PAW double counting   =     33808.37727928   -33408.45642866
  entropy T*S    EENTRO =        -0.00000000
  eigenvalues    EBANDS =     -3982.70709722
  atomic energy  EATOM  =     19947.02745206
  Solvation  Ediel_sol  =         0.00000000
  ---------------------------------------------------
  free energy    TOTEN  =      -387.86047222 eV

  energy without entropy =     -387.86047222  energy(sigma->0) =     -387.86047222


--------------------------------------------------------------------------------------------------------




--------------------------------------- Iteration      1(  11)  ---------------------------------------


    POTLOK:  cpu time    0.1766: real time    0.1793
    SETDIJ:  cpu time    0.3703: real time    0.3742
     EDDAV:  cpu time   13.1357: real time   13.2886
       DOS:  cpu time    0.0031: real time    0.0035
    CHARGE:  cpu time    0.4960: real time    0.4961
    MIXING:  cpu time    0.0095: real time    0.0095
    --------------------------------------------
      LOOP:  cpu time   14.1912: real time   14.3512

 eigenvalue-minimisations  :  5056
 total energy-change (2. order) : 0.1402072E-01  (-0.3111262E-01)
 number of electron     287.9999854 magnetization 
 augmentation part       30.4076057 magnetization 

 Broyden mixing:
  rms(total) = 0.99392E-01    rms(broyden)= 0.99387E-01
  rms(prec ) = 0.99645E-01
  weight for this iteration     100.00

 eigenvalues of (default mixing * dielectric matrix)
  average eigenvalue GAMMA=   1.2755
  2.0307  2.0307  1.1177  1.1177  0.7837  0.5727

 Free energy of the ion-electron system (eV)
  ---------------------------------------------------
  alpha Z        PSCENC =       537.91590305
  Ewald energy   TEWEN  =   1786890.02072388
  -Hartree energ DENC   =  -1804935.98326180
  -exchange      EXHF   =         0.00000000
  -V(xc)+E(xc)   XCENC  =       738.65306572
  PAW double counting   =     33341.43926933   -32939.33063371
  entropy T*S    EENTRO =        -0.00000000
  eigenvalues    EBANDS =     -3967.58897004
  atomic energy  EATOM  =     19947.02745206
  Solvation  Ediel_sol  =         0.00000000
  ---------------------------------------------------
  free energy    TOTEN  =      -387.84645150 eV

  energy without entropy =     -387.84645150  energy(sigma->0) =     -387.84645150


--------------------------------------------------------------------------------------------------------




--------------------------------------- Iteration      1(  12)  ---------------------------------------


    POTLOK:  cpu time    0.1141: real time    0.1177
    SETDIJ:  cpu time    0.4132: real time    0.4131
     EDDAV:  cpu time    8.9877: real time    8.9954
       DOS:  cpu time    0.0020: real time    0.0025
    CHARGE:  cpu time    0.4339: real time    0.4342
    MIXING:  cpu time    0.0064: real time    0.0064
    --------------------------------------------
      LOOP:  cpu time    9.9574: real time    9.9694

 eigenvalue-minimisations  :  4528
 total energy-change (2. order) : 0.1913139E-02  (-0.1153608E-01)
 number of electron     287.9999853 magnetization 
 augmentation part       30.4263228 magnetization 

 Broyden mixing:
  rms(total) = 0.51666E-01    rms(broyden)= 0.51653E-01
  rms(prec ) = 0.51885E-01
  weight for this iteration     100.00

 eigenvalues of (default mixing * dielectric matrix)
  average eigenvalue GAMMA=   1.2974
  2.1608  2.1608  1.6493  0.8918  0.8918  0.5716  0.7557

 Free energy of the ion-electron system (eV)
  ---------------------------------------------------
  alpha Z        PSCENC =       537.91590305
  Ewald energy   TEWEN  =   1786890.02072388
  -Hartree energ DENC   =  -1804957.62788868
  -exchange      EXHF   =         0.00000000
  -V(xc)+E(xc)   XCENC  =       738.55753200
  PAW double counting   =     33418.35145801   -33014.15772402
  entropy T*S    EENTRO =        -0.00000000
  eigenvalues    EBANDS =     -3947.93199468
  atomic energy  EATOM  =     19947.02745206
  Solvation  Ediel_sol  =         0.00000000
  ---------------------------------------------------
  free energy    TOTEN  =      -387.84453836 eV

  energy without entropy =     -387.84453836  energy(sigma->0) =     -387.84453836


--------------------------------------------------------------------------------------------------------




--------------------------------------- Iteration      1(  13)  ---------------------------------------


    POTLOK:  cpu time    0.1326: real time    0.1334
    SETDIJ:  cpu time    0.4203: real time    0.4204
     EDDAV:  cpu time   12.5383: real time   12.5415
       DOS:  cpu time    0.0018: real time    0.0018
    CHARGE:  cpu time    0.5619: real time    0.5622
    MIXING:  cpu time    0.0041: real time    0.0041
    --------------------------------------------
      LOOP:  cpu time   13.6590: real time   13.6634

 eigenvalue-minimisations  :  5056
 total energy-change (2. order) : 0.1513110E-02  (-0.3342498E-02)
 number of electron     287.9999853 magnetization 
 augmentation part       30.4886257 magnetization 

 Broyden mixing:
  rms(total) = 0.39889E-01    rms(broyden)= 0.39886E-01
  rms(prec ) = 0.40069E-01
  weight for this iteration     100.00

 eigenvalues of (default mixing * dielectric matrix)
  average eigenvalue GAMMA=   1.2448
  2.3260  2.3260  1.4931  0.8942  0.8942  0.5818  0.7217  0.7217

 Free energy of the ion-electron system (eV)
  ---------------------------------------------------
  alpha Z        PSCENC =       537.91590305
  Ewald energy   TEWEN  =   1786890.02072388
  -Hartree energ DENC   =  -1804980.47976734
  -exchange      EXHF   =         0.00000000
  -V(xc)+E(xc)   XCENC  =       738.85275938
  PAW double counting   =     33442.97064125   -33037.60025603
  entropy T*S    EENTRO =        -0.00000000
  eigenvalues    EBANDS =     -3926.55048150
  atomic energy  EATOM  =     19947.02745206
  Solvation  Ediel_sol  =         0.00000000
  ---------------------------------------------------
  free energy    TOTEN  =      -387.84302525 eV

  energy without entropy =     -387.84302525  energy(sigma->0) =     -387.84302525


--------------------------------------------------------------------------------------------------------




--------------------------------------- Iteration      1(  14)  ---------------------------------------


    POTLOK:  cpu time    0.1494: real time    0.1535
    SETDIJ:  cpu time    0.3690: real time    0.3691
     EDDAV:  cpu time   10.2890: real time   10.3255
       DOS:  cpu time    0.0022: real time    0.0025
    CHARGE:  cpu time    0.4290: real time    0.4292
    MIXING:  cpu time    0.0373: real time    0.0373
    --------------------------------------------
      LOOP:  cpu time   11.2759: real time   11.3171

 eigenvalue-minimisations  :  4944
 total energy-change (2. order) : 0.1084363E-02  (-0.5962953E-03)
 number of electron     287.9999853 magnetization 
 augmentation part       30.4726208 magnetization 

 Broyden mixing:
  rms(total) = 0.17724E-01    rms(broyden)= 0.17724E-01
  rms(prec ) = 0.17962E-01
  weight for this iteration     100.00

 eigenvalues of (default mixing * dielectric matrix)
  average eigenvalue GAMMA=   1.2411
  2.3715  1.9448  1.9448  0.9360  0.9360  0.9537  0.8783  0.5763  0.6283

 Free energy of the ion-electron system (eV)
  ---------------------------------------------------
  alpha Z        PSCENC =       537.91590305
  Ewald energy   TEWEN  =   1786890.02072388
  -Hartree energ DENC   =  -1804989.76826313
  -exchange      EXHF   =         0.00000000
  -V(xc)+E(xc)   XCENC  =       738.84582825
  PAW double counting   =     33444.40509044   -33038.77771535
  entropy T*S    EENTRO =        -0.00000000
  eigenvalues    EBANDS =     -3917.51096009
  atomic energy  EATOM  =     19947.02745206
  Solvation  Ediel_sol  =         0.00000000
  ---------------------------------------------------
  free energy    TOTEN  =      -387.84194089 eV

  energy without entropy =     -387.84194089  energy(sigma->0) =     -387.84194089


--------------------------------------------------------------------------------------------------------




--------------------------------------- Iteration      1(  15)  ---------------------------------------


    POTLOK:  cpu time    0.1240: real time    0.1275
    SETDIJ:  cpu time    0.4629: real time    0.4629
     EDDAV:  cpu time    7.9317: real time    8.1418
       DOS:  cpu time    0.0029: real time    0.0035
    CHARGE:  cpu time    0.5199: real time    0.6687
    MIXING:  cpu time    0.0139: real time    0.0209
    --------------------------------------------
      LOOP:  cpu time    9.0553: real time    9.4253

 eigenvalue-minimisations  :  4960
 total energy-change (2. order) : 0.3581333E-03  (-0.2410075E-03)
 number of electron     287.9999853 magnetization 
 augmentation part       30.4596526 magnetization 

 Broyden mixing:
  rms(total) = 0.14433E-01    rms(broyden)= 0.14432E-01
  rms(prec ) = 0.14639E-01
  weight for this iteration     100.00

 eigenvalues of (default mixing * dielectric matrix)
  average eigenvalue GAMMA=   1.2553
  2.3155  2.1903  2.1903  1.0985  1.0985  0.8366  0.8366  0.8101  0.5776  0.5986

 Free energy of the ion-electron system (eV)
  ---------------------------------------------------
  alpha Z        PSCENC =       537.91590305
  Ewald energy   TEWEN  =   1786890.02072388
  -Hartree energ DENC   =  -1804998.49112694
  -exchange      EXHF   =         0.00000000
  -V(xc)+E(xc)   XCENC  =       738.80595906
  PAW double counting   =     33465.37752741   -33059.81754817
  entropy T*S    EENTRO =        -0.00000000
  eigenvalues    EBANDS =     -3908.68047312
  atomic energy  EATOM  =     19947.02745206
  Solvation  Ediel_sol  =         0.00000000
  ---------------------------------------------------
  free energy    TOTEN  =      -387.84158275 eV

  energy without entropy =     -387.84158275  energy(sigma->0) =     -387.84158275


--------------------------------------------------------------------------------------------------------




--------------------------------------- Iteration      1(  16)  ---------------------------------------


    POTLOK:  cpu time    0.1502: real time    0.2131
    SETDIJ:  cpu time    0.3278: real time    0.4029
     EDDAV:  cpu time   11.8163: real time   12.1919
       DOS:  cpu time    0.0011: real time    0.0014
    CHARGE:  cpu time    0.3615: real time    0.3621
    MIXING:  cpu time    0.0058: real time    0.0058
    --------------------------------------------
      LOOP:  cpu time   12.6628: real time   13.1773

 eigenvalue-minimisations  :  4672
 total energy-change (2. order) : 0.2332460E-03  (-0.7567070E-04)
 number of electron     287.9999853 magnetization 
 augmentation part       30.4636569 magnetization 

 Broyden mixing:
  rms(total) = 0.58694E-02    rms(broyden)= 0.58690E-02
  rms(prec ) = 0.62446E-02
  weight for this iteration     100.00

 eigenvalues of (default mixing * dielectric matrix)
  average eigenvalue GAMMA=   1.3222
  2.8152  2.3877  1.7492  1.7492  1.0987  1.0987  0.8225  0.8225  0.8383  0.5755
  0.5869

 Free energy of the ion-electron system (eV)
  ---------------------------------------------------
  alpha Z        PSCENC =       537.91590305
  Ewald energy   TEWEN  =   1786890.02072388
  -Hartree energ DENC   =  -1805007.64159414
  -exchange      EXHF   =         0.00000000
  -V(xc)+E(xc)   XCENC  =       738.83962928
  PAW double counting   =     33462.30760612   -33056.76455602
  entropy T*S    EENTRO =        -0.00000000
  eigenvalues    EBANDS =     -3899.54651374
  atomic energy  EATOM  =     19947.02745206
  Solvation  Ediel_sol  =         0.00000000
  ---------------------------------------------------
  free energy    TOTEN  =      -387.84134951 eV

  energy without entropy =     -387.84134951  energy(sigma->0) =     -387.84134951


--------------------------------------------------------------------------------------------------------




--------------------------------------- Iteration      1(  17)  ---------------------------------------


    POTLOK:  cpu time    0.1071: real time    0.1116
    SETDIJ:  cpu time    0.4016: real time    0.4016
     EDDAV:  cpu time   10.2284: real time   10.3542
       DOS:  cpu time    0.0023: real time    0.0029
    CHARGE:  cpu time    0.4569: real time    0.4571
    MIXING:  cpu time    0.0045: real time    0.0045
    --------------------------------------------
      LOOP:  cpu time   11.2008: real time   11.3319

 eigenvalue-minimisations  :  4256
 total energy-change (2. order) : 0.2546891E-03  (-0.4711052E-04)
 number of electron     287.9999853 magnetization 
 augmentation part       30.4640560 magnetization 

 Broyden mixing:
  rms(total) = 0.37622E-02    rms(broyden)= 0.37621E-02
  rms(prec ) = 0.41336E-02
  weight for this iteration     100.00

 eigenvalues of (default mixing * dielectric matrix)
  average eigenvalue GAMMA=   1.3252
  2.7068  2.1441  2.1441  2.1951  1.1286  1.1286  0.8363  0.8363  0.8110  0.8110
  0.5801  0.5801

 Free energy of the ion-electron system (eV)
  ---------------------------------------------------
  alpha Z        PSCENC =       537.91590305
  Ewald energy   TEWEN  =   1786890.02072388
  -Hartree energ DENC   =  -1805022.07317368
  -exchange      EXHF   =         0.00000000
  -V(xc)+E(xc)   XCENC  =       738.86917195
  PAW double counting   =     33460.09050275   -33054.45400206
  entropy T*S    EENTRO =        -0.00000000
  eigenvalues    EBANDS =     -3885.23767277
  atomic energy  EATOM  =     19947.02745206
  Solvation  Ediel_sol  =         0.00000000
  ---------------------------------------------------
  free energy    TOTEN  =      -387.84109482 eV

  energy without entropy =     -387.84109482  energy(sigma->0) =     -387.84109482


--------------------------------------------------------------------------------------------------------




--------------------------------------- Iteration      1(  18)  ---------------------------------------


    POTLOK:  cpu time    0.1153: real time    0.1189
    SETDIJ:  cpu time    0.3949: real time    0.3951
     EDDAV:  cpu time    9.5037: real time   10.5048
       DOS:  cpu time    0.0012: real time    0.0016
    CHARGE:  cpu time    0.5196: real time    0.5195
    MIXING:  cpu time    0.0064: real time    0.0064
    --------------------------------------------
      LOOP:  cpu time   10.5411: real time   11.5463

 eigenvalue-minimisations  :  4624
 total energy-change (2. order) : 0.3487100E-04  (-0.2835887E-04)
 number of electron     287.9999853 magnetization 
 augmentation part       30.4598416 magnetization 

 Broyden mixing:
  rms(total) = 0.41656E-02    rms(broyden)= 0.41656E-02
  rms(prec ) = 0.44132E-02
  weight for this iteration     100.00

 eigenvalues of (default mixing * dielectric matrix)
  average eigenvalue GAMMA=   1.3276
  3.0324  2.3830  2.3830  1.9599  1.1937  1.1937  0.8872  0.8872  0.7060  0.7060
  0.7670  0.5801  0.5801

 Free energy of the ion-electron system (eV)
  ---------------------------------------------------
  alpha Z        PSCENC =       537.91590305
  Ewald energy   TEWEN  =   1786890.02072388
  -Hartree energ DENC   =  -1805029.55502031
  -exchange      EXHF   =         0.00000000
  -V(xc)+E(xc)   XCENC  =       738.86115948
  PAW double counting   =     33460.54720522   -33054.99985029
  entropy T*S    EENTRO =        -0.00000000
  eigenvalues    EBANDS =     -3877.65863304
  atomic energy  EATOM  =     19947.02745206
  Solvation  Ediel_sol  =         0.00000000
  ---------------------------------------------------
  free energy    TOTEN  =      -387.84105995 eV

  energy without entropy =     -387.84105995  energy(sigma->0) =     -387.84105995


--------------------------------------------------------------------------------------------------------




--------------------------------------- Iteration      1(  19)  ---------------------------------------


    POTLOK:  cpu time    0.1201: real time    0.1229
    SETDIJ:  cpu time    0.4135: real time    0.4137
     EDDAV:  cpu time    8.2263: real time    8.5082
       DOS:  cpu time    0.0011: real time    0.0014
    CHARGE:  cpu time    0.3621: real time    0.3623
    MIXING:  cpu time    0.0092: real time    0.0092
    --------------------------------------------
      LOOP:  cpu time    9.1323: real time    9.4177

 eigenvalue-minimisations  :  4368
 total energy-change (2. order) : 0.1895458E-04  (-0.1532586E-04)
 number of electron     287.9999853 magnetization 
 augmentation part       30.4590764 magnetization 

 Broyden mixing:
  rms(total) = 0.35330E-02    rms(broyden)= 0.35330E-02
  rms(prec ) = 0.37297E-02
  weight for this iteration     100.00

[...]
  0.000  -0.000  -0.022   0.000   0.000   0.021  -0.000  -0.000  -0.000  -0.189   0.000   0.000   0.000   0.000   0.115   0.000
 -0.002   0.013   0.000   0.182  -0.000   0.000  -0.181  -0.000   0.000   0.000   0.167   0.000   0.000   0.000  -0.000  -0.092
  0.000   0.000  -0.000  -0.000  -0.022   0.000   0.000   0.021   0.000   0.000   0.000  -0.189  -0.000   0.000   0.000   0.000
  0.000   0.000   0.000   0.000   0.000  -0.000   0.000  -0.000   0.000   0.000   0.000  -0.000  -0.312   0.000   0.000   0.000
  0.000  -0.000   0.000  -0.000   0.110   0.000   0.000  -0.113   0.000   0.000  -0.000  -0.176   0.000   0.000   0.000   0.000


------------------------ aborting loop because EDIFF is reached ----------------------------------------


 


 total charge     
 
# of ion       s       p       d       f       tot
--------------------------------------------------
    1        2.160   6.402   0.964   0.105   9.631
    2        2.159   6.376   0.919   0.100   9.554
    3        2.160   6.402   0.964   0.105   9.631
    4        2.160   6.402   0.964   0.105   9.631
    5        2.159   6.376   0.919   0.100   9.554
    6        2.160   6.402   0.964   0.105   9.631
    7        2.160   6.402   0.964   0.105   9.631
    8        2.160   6.402   0.964   0.105   9.631
    9        0.578   1.041   2.739   0.000   4.358
   10        0.577   1.034   2.742   0.000   4.353
   11        0.577   1.034   2.741   0.000   4.353
   12        0.578   1.035   2.742   0.000   4.354
   13        0.577   1.034   2.742   0.000   4.353
   14        0.578   1.041   2.739   0.000   4.358
   15        0.578   1.035   2.742   0.000   4.354
   16        0.577   1.034   2.741   0.000   4.353
   17        1.317   2.439   0.000   0.000   3.756
   18        1.318   2.461   0.000   0.000   3.779
   19        1.318   2.461   0.000   0.000   3.779
   20        1.318   2.461   0.000   0.000   3.779
   21        1.318   2.461   0.000   0.000   3.779
   22        1.317   2.439   0.000   0.000   3.756
   23        1.318   2.461   0.000   0.000   3.779
   24        1.318   2.461   0.000   0.000   3.779
   25        1.575   3.429   0.000   0.000   5.004
   26        1.575   3.410   0.000   0.000   4.984
   27        1.552   3.536   0.000   0.000   5.087
   28        1.552   3.537   0.000   0.000   5.088
   29        1.575   3.410   0.000   0.000   4.985
   30        1.576   3.429   0.000   0.000   5.005
   31        1.575   3.410   0.000   0.000   4.985
   32        1.552   3.536   0.000   0.000   5.087
   33        1.552   3.536   0.000   0.000   5.087
   34        1.575   3.410   0.000   0.000   4.985
   35        1.576   3.429   0.000   0.000   5.005
   36        1.575   3.410   0.000   0.000   4.985
   37        1.552   3.537   0.000   0.000   5.088
   38        1.552   3.536   0.000   0.000   5.087
   39        1.575   3.410   0.000   0.000   4.984
   40        1.575   3.429   0.000   0.000   5.004
   41        1.575   3.410   0.000   0.000   4.985
   42        1.552   3.536   0.000   0.000   5.087
   43        1.552   3.536   0.000   0.000   5.087
   44        1.575   3.410   0.000   0.000   4.985
--------------------------------------------------
tot         63.755 148.385  29.548   0.830 242.518

 
    CHARGE:  cpu time    0.4183: real time    0.4657
    FORLOC:  cpu time    0.0146: real time    0.0146
    FORNL :  cpu time    0.6175: real time    0.7059
    STRESS:  cpu time    2.0655: real time    2.4201
    FORCOR:  cpu time    0.2404: real time    0.2585
    FORHAR:  cpu time    0.0521: real time    0.0545
    MIXING:  cpu time    0.0704: real time    0.0902
    OFIELD:  cpu time    0.0001: real time    0.0001

  FORCE on cell =-STRESS in cart. coord.  units (eV):
  Direction    XX          YY          ZZ          XY          YZ          ZX
  --------------------------------------------------------------------------------------
  Alpha Z   537.91590   537.91590   537.91590
  Ewald  ************************************    -0.00000     0.00000     0.00000
  Hartree************************************    -0.00000    -0.00000    -0.00000
  E(xc)   -1239.49270 -1239.49270 -1241.02211     0.00000    -0.00000    -0.00000
  Local  ************************************    -0.00000    -0.00000     0.00000
  n-local  -315.00911  -324.50859  -322.29511   -10.79257    -0.00000     0.00000
  augment   153.41781   153.41781   154.28289    -0.00000    -0.00000    -0.00000
  Kinetic  4504.78498  4614.80660  4564.69065    -2.62822     0.00000    -0.00000
  Fock        0.00000     0.00000     0.00000     0.00000     0.00000     0.00000
  -------------------------------------------------------------------------------------
  Total      -3.28148    -3.28148     0.03910     0.00000     0.00000     0.00000
  in kB      -3.25859    -3.25859     0.03882     0.00000     0.00000     0.00000
  external pressure =       -2.16 kB  Pullay stress =        0.00 kB


 VOLUME and BASIS-vectors are now :
 -----------------------------------------------------------------------------
  energy-cutoff  :      520.00
  volume of cell :     1613.43
      direct lattice vectors                 reciprocal lattice vectors
     3.770023000  0.000000000  0.000000000     0.265250371  0.000000000  0.000000000
     0.000000000  3.770023000  0.000000000     0.000000000  0.265250371  0.000000000
     0.000000000  0.000000000113.517567000     0.000000000  0.000000000  0.008809209

  length of vectors
     3.770023000  3.770023000113.517567000     0.265250371  0.265250371  0.008809209


 FORCES acting on ions
    electron-ion (+dipol)            ewald-force                    non-local-force                 convergence-correction
 -----------------------------------------------------------------------------------------------
   0.955E-13 -.619E-12 0.871E+03   -.498E-14 0.640E-14 -.872E+03   0.775E-25 0.000E+00 0.434E+00   0.656E-14 0.573E-14 -.166E-03
   0.771E-14 0.619E-12 0.112E+05   0.362E-14 0.112E-13 -.112E+05   0.233E-24 0.000E+00 -.253E+01   -.362E-15 -.911E-14 0.274E-03
   -.884E-15 -.113E-11 0.692E+04   0.185E-13 0.116E-14 -.692E+04   0.000E+00 0.000E+00 0.427E+00   0.143E-13 0.113E-13 -.237E-03
   0.113E-12 0.124E-11 0.518E+04   0.212E-14 0.159E-13 -.518E+04   0.000E+00 0.000E+00 -.432E+00   -.221E-13 0.157E-13 0.160E-03
   0.872E-13 -.474E-12 -.112E+05   0.362E-14 0.112E-13 0.112E+05   -.207E-24 0.000E+00 0.253E+01   0.324E-14 0.557E-14 -.274E-03
   -.316E-14 0.951E-12 -.871E+03   -.138E-14 0.156E-13 0.872E+03   -.116E-24 -.517E-25 -.434E+00   -.663E-14 -.576E-14 0.166E-03
   0.553E-14 -.995E-12 -.518E+04   -.174E-14 0.661E-14 0.518E+04   0.517E-25 0.000E+00 0.432E+00   0.242E-13 -.154E-13 -.160E-03
   0.111E-12 0.160E-11 -.692E+04   0.222E-13 0.104E-13 0.692E+04   0.000E+00 0.000E+00 -.427E+00   -.824E-14 -.153E-13 0.237E-03
   0.121E-13 -.402E-12 0.356E+04   0.345E-14 -.825E-14 -.356E+04   0.000E+00 0.905E-25 0.333E-01   0.451E-14 -.485E-14 0.477E-04
   -.274E-14 -.258E-12 0.843E+03   0.106E-13 0.120E-14 -.843E+03   -.162E-26 0.323E-26 -.216E-01   -.497E-14 0.519E-14 -.181E-04
   -.100E-13 -.165E-12 0.136E+04   0.154E-13 0.203E-14 -.136E+04   0.103E-24 0.000E+00 0.388E-01   0.815E-14 -.977E-14 0.494E-04
   0.494E-14 0.482E-12 0.304E+04   0.131E-13 0.187E-14 -.304E+04   0.000E+00 -.258E-25 -.199E-01   -.376E-15 0.417E-14 -.358E-04
   0.467E-14 0.377E-12 -.843E+03   0.107E-13 0.103E-14 0.843E+03   0.646E-26 -.323E-26 0.216E-01   0.518E-14 -.400E-14 0.181E-04
   -.317E-14 0.444E-12 -.356E+04   0.345E-14 -.825E-14 0.356E+04   0.000E+00 -.775E-25 -.333E-01   -.575E-14 0.514E-14 -.477E-04
   0.587E-15 -.581E-12 -.304E+04   0.126E-13 0.193E-14 0.304E+04   -.517E-25 0.517E-25 0.199E-01   -.507E-15 -.499E-14 0.358E-04
   0.131E-13 0.138E-12 -.136E+04   0.158E-13 0.196E-14 0.136E+04   -.258E-24 0.000E+00 -.388E-01   -.694E-14 0.766E-14 -.494E-04
   -.184E-13 -.148E-11 0.637E+04   -.958E-14 0.180E-14 -.638E+04   0.000E+00 -.129E-25 0.466E+00   -.226E-13 0.363E-14 0.116E-03
   -.262E-14 -.187E-12 0.216E+03   0.723E-14 0.608E-14 -.216E+03   0.000E+00 0.000E+00 -.443E+00   -.154E-14 -.114E-13 -.620E-04
   -.359E-14 -.383E-12 0.308E+04   -.141E-14 -.178E-14 -.308E+04   0.000E+00 0.258E-25 0.437E+00   -.155E-14 0.126E-13 0.407E-04
   -.459E-14 -.330E-12 0.352E+04   -.233E-13 -.808E-14 -.352E+04   0.103E-24 0.155E-24 -.440E+00   0.113E-14 -.188E-13 -.102E-03
   -.160E-13 0.449E-12 -.216E+03   -.147E-13 -.270E-14 0.216E+03   -.323E-26 0.000E+00 0.443E+00   0.118E-14 0.857E-14 0.620E-04
   0.172E-14 0.130E-11 -.637E+04   -.958E-14 0.180E-14 0.638E+04   0.000E+00 -.103E-24 -.466E+00   0.224E-13 -.838E-14 -.116E-03
   -.736E-14 0.189E-12 -.352E+04   -.133E-14 0.711E-15 0.352E+04   -.103E-24 -.207E-24 0.440E+00   -.333E-14 0.215E-13 0.102E-03
   -.129E-13 0.446E-12 -.308E+04   -.234E-13 -.106E-13 0.308E+04   0.000E+00 0.775E-25 -.437E+00   -.122E-14 -.914E-14 -.407E-04
   -.322E-14 -.283E-12 0.165E+04   0.690E-14 -.106E-13 -.165E+04   -.258E-25 0.517E-25 0.325E-02   -.118E-13 0.943E-14 0.275E-04
   -.441E-14 0.754E-13 0.545E+04   0.362E-14 -.165E-13 -.545E+04   0.000E+00 0.103E-24 -.158E+01   -.111E-13 -.187E-13 0.115E-03
   -.149E-14 0.737E-12 0.115E+04   0.107E-13 -.821E-14 -.115E+04   0.000E+00 -.517E-25 0.149E+01   0.180E-13 0.317E-14 -.634E-04
   0.142E-12 -.728E-12 0.545E+04   -.318E-13 0.647E-14 -.545E+04   0.000E+00 0.000E+00 -.158E+01   -.187E-13 0.134E-13 0.115E-03
   0.152E-12 0.516E-12 0.115E+04   -.345E-13 -.811E-14 -.115E+04   -.129E-25 0.323E-26 0.149E+01   0.855E-14 0.138E-13 -.634E-04
   0.188E-12 -.807E-12 0.495E+04   0.509E-14 -.620E-14 -.495E+04   0.000E+00 -.646E-26 0.155E+00   0.403E-14 0.285E-14 0.467E-05
   0.140E-12 0.935E-12 0.215E+04   -.563E-14 -.146E-13 -.215E+04   0.103E-24 0.000E+00 -.150E+01   -.332E-13 -.631E-14 0.908E-04
   0.138E-12 -.626E-12 0.445E+04   0.188E-13 -.104E-13 -.445E+04   0.000E+00 -.207E-24 0.149E+01   0.131E-15 0.853E-14 -.866E-04
   -.150E-13 -.946E-12 0.215E+04   -.213E-13 0.916E-15 -.215E+04   0.000E+00 0.000E+00 -.150E+01   0.205E-14 0.298E-13 0.908E-04
   -.168E-15 0.415E-13 0.445E+04   -.550E-13 -.679E-16 -.445E+04   -.258E-25 0.162E-26 0.149E+01   -.835E-14 0.233E-13 -.866E-04
   0.105E-13 0.935E-12 -.495E+04   0.606E-14 -.949E-14 0.495E+04   0.000E+00 0.000E+00 -.155E+00   -.376E-14 -.237E-14 -.467E-05
   0.195E-14 -.445E-12 -.115E+04   0.905E-15 -.129E-13 0.115E+04   0.000E+00 0.000E+00 -.149E+01   -.143E-13 -.162E-13 0.634E-04
   -.792E-14 0.899E-12 -.545E+04   0.776E-14 0.251E-14 0.545E+04   0.000E+00 0.000E+00 0.158E+01   0.110E-13 -.140E-13 -.115E-03
   0.164E-12 0.623E-13 -.115E+04   -.275E-13 -.828E-14 0.115E+04   0.000E+00 0.517E-25 -.149E+01   -.210E-13 -.775E-14 0.634E-04
   0.143E-12 -.509E-12 -.545E+04   -.369E-13 -.929E-14 0.545E+04   0.000E+00 -.517E-25 0.158E+01   0.135E-13 0.170E-13 -.115E-03
   0.146E-12 0.392E-12 -.165E+04   0.118E-13 -.537E-14 0.165E+04   0.517E-25 -.103E-24 -.325E-02   0.125E-13 -.137E-13 -.275E-04
   0.140E-12 -.754E-13 -.445E+04   -.167E-13 -.702E-14 0.445E+04   0.000E+00 -.129E-25 -.149E+01   0.654E-14 -.186E-13 0.866E-04
   0.143E-12 0.611E-12 -.215E+04   0.181E-13 -.624E-14 0.215E+04   0.000E+00 0.000E+00 0.150E+01   -.317E-14 -.252E-13 -.908E-04
   -.126E-13 0.241E-12 -.445E+04   -.206E-13 -.325E-14 0.445E+04   0.000E+00 0.207E-24 -.149E+01   -.378E-14 -.516E-14 0.866E-04
   0.245E-14 -.829E-12 -.215E+04   -.440E-13 -.764E-14 0.215E+04   0.207E-24 0.162E-26 0.150E+01   0.253E-13 0.536E-14 -.908E-04
 -----------------------------------------------------------------------------------------------
   0.184E-11 0.143E-11 0.198E-09   -.153E-12 -.751E-13 -.114E-10   0.131E-24 -.905E-25 -.666E-15   -.229E-13 -.113E-13 0.425E-10
 
 
 POSITION                                       TOTAL-FORCE (eV/Angst)
 -----------------------------------------------------------------------------------
      1.88501      1.88501     54.87961         0.000000     -0.000000      0.000352
      0.00000      0.00000     35.93444         0.000000     -0.000000      0.559041
      0.00000      0.00000     43.52786         0.000000      0.000000      0.001794
      1.88501      1.88501     47.28620         0.000000     -0.000000      0.000678
      1.88501      1.88501     77.58313         0.000000      0.000000     -0.559041
      0.00000      0.00000     58.63795         0.000000     -0.000000     -0.000352
      0.00000      0.00000     66.23137         0.000000      0.000000     -0.000678
      1.88501      1.88501     69.98971         0.000000     -0.000000     -0.001794
      1.88501      1.88501     37.91226         0.000000      0.000000     -0.234227
      0.00000      0.00000     52.90180         0.000000      0.000000      0.010669
      0.00000      0.00000     49.26401         0.000000      0.000000      0.006487
      1.88501      1.88501     41.55004         0.000000     -0.000000      0.017563
      1.88501      1.88501     60.61577        -0.000000     -0.000000     -0.010669
      0.00000      0.00000     75.60531         0.000000     -0.000000      0.234227
      0.00000      0.00000     71.96753         0.000000     -0.000000     -0.017563
      1.88501      1.88501     64.25355         0.000000     -0.000000     -0.006487
      1.88501      1.88501     35.05899         0.000000     -0.000000     -0.391997
      0.00000      0.00000     55.75506        -0.000000     -0.000000     -0.001417
      0.00000      0.00000     46.41075         0.000000      0.000000     -0.003792
      1.88501      1.88501     44.40330         0.000000     -0.000000      0.001359
      1.88501      1.88501     57.76251         0.000000     -0.000000      0.001417
      0.00000      0.00000     78.45857         0.000000     -0.000000      0.391997
      0.00000      0.00000     69.11426         0.000000      0.000000     -0.001359
      1.88501      1.88501     67.10682        -0.000000      0.000000      0.003792
      0.00000      0.00000     51.08291         0.000000      0.000000      0.003538
      0.00000      1.88501     37.43526         0.000000      0.000000     -0.007193
      0.00000      1.88501     53.37880         0.000000     -0.000000     -0.007257
      1.88501      0.00000     37.43526         0.000000      0.000000     -0.007193
      1.88501      0.00000     53.37880        -0.000000     -0.000000     -0.007257
      1.88501      1.88501     39.73115         0.000000      0.000000      0.049613
      1.88501      0.00000     48.78701         0.000000     -0.000000     -0.007681
      1.88501      0.00000     42.02704         0.000000     -0.000000      0.000422
      0.00000      1.88501     48.78701        -0.000000     -0.000000     -0.007681
      0.00000      1.88501     42.02704         0.000000      0.000000      0.000422
      0.00000      0.00000     73.78642        -0.000000      0.000000     -0.049613
      0.00000      1.88501     60.13877         0.000000      0.000000      0.007257
      0.00000      1.88501     76.08231         0.000000      0.000000      0.007193
      1.88501      0.00000     60.13877         0.000000      0.000000      0.007257
      1.88501      0.00000     76.08231         0.000000     -0.000000      0.007193
      1.88501      1.88501     62.43466         0.000000     -0.000000     -0.003538
      1.88501      0.00000     71.49053         0.000000     -0.000000     -0.000422
      1.88501      0.00000     64.73055         0.000000      0.000000      0.007681
      0.00000      1.88501     71.49053        -0.000000     -0.000000     -0.000422
      0.00000      1.88501     64.73055         0.000000      0.000000      0.007681
 -----------------------------------------------------------------------------------
    total drift:                                0.000000      0.000000      0.000000


--------------------------------------------------------------------------------------------------------



  FREE ENERGIE OF THE ION-ELECTRON SYSTEM (eV)
  ---------------------------------------------------
  free  energy   TOTEN  =      -387.84244314 eV

  energy  without entropy=     -387.84244314  energy(sigma->0) =     -387.84244314
 


--------------------------------------------------------------------------------------------------------


    POTLOK:  cpu time    0.5549: real time    0.6255


--------------------------------------------------------------------------------------------------------


     LOOP+:  cpu time  403.5851: real time  414.5197
    4ORBIT:  cpu time    0.0000: real time    0.0000
 


 total charge     
 
# of ion       s       p       d       f       tot
--------------------------------------------------
    1        2.160   6.402   0.964   0.105   9.631
    2        2.159   6.376   0.919   0.100   9.554
    3        2.160   6.402   0.964   0.105   9.631
    4        2.160   6.402   0.964   0.105   9.631
    5        2.159   6.376   0.919   0.100   9.554
    6        2.160   6.402   0.964   0.105   9.631
    7        2.160   6.402   0.964   0.105   9.631
    8        2.160   6.402   0.964   0.105   9.631
    9        0.578   1.041   2.739   0.000   4.358
   10        0.577   1.034   2.742   0.000   4.353
   11        0.577   1.034   2.741   0.000   4.353
   12        0.578   1.035   2.742   0.000   4.354
   13        0.577   1.034   2.742   0.000   4.353
   14        0.578   1.041   2.739   0.000   4.358
   15        0.578   1.035   2.742   0.000   4.354
   16        0.577   1.034   2.741   0.000   4.353
   17        1.317   2.439   0.000   0.000   3.756
   18        1.318   2.461   0.000   0.000   3.779
   19        1.318   2.461   0.000   0.000   3.779
   20        1.318   2.461   0.000   0.000   3.779
   21        1.318   2.461   0.000   0.000   3.779
   22        1.317   2.439   0.000   0.000   3.756
   23        1.318   2.461   0.000   0.000   3.779
   24        1.318   2.461   0.000   0.000   3.779
   25        1.575   3.429   0.000   0.000   5.004
   26        1.575   3.410   0.000   0.000   4.984
   27        1.552   3.536   0.000   0.000   5.087
   28        1.552   3.537   0.000   0.000   5.088
   29        1.575   3.410   0.000   0.000   4.985
   30        1.576   3.429   0.000   0.000   5.005
   31        1.575   3.410   0.000   0.000   4.985
   32        1.552   3.536   0.000   0.000   5.087
   33        1.552   3.536   0.000   0.000   5.087
   34        1.575   3.410   0.000   0.000   4.985
   35        1.576   3.429   0.000   0.000   5.005
   36        1.575   3.410   0.000   0.000   4.985
   37        1.552   3.537   0.000   0.000   5.088
   38        1.552   3.536   0.000   0.000   5.087
   39        1.575   3.410   0.000   0.000   4.984
   40        1.575   3.429   0.000   0.000   5.004
   41        1.575   3.410   0.000   0.000   4.985
   42        1.552   3.536   0.000   0.000   5.087
   43        1.552   3.536   0.000   0.000   5.087
   44        1.575   3.410   0.000   0.000   4.985
--------------------------------------------------
tot         63.755 148.385  29.548   0.830 242.518

 

 total amount of memory used by VASP MPI-rank0    66920. kBytes
=======================================================================

   base      :      30000. kBytes
   nonlr-proj:      10342. kBytes
   fftplans  :       5753. kBytes
   grid      :      10846. kBytes
   one-center:        180. kBytes
   wavefun   :       9799. kBytes
 
  
  
 General timing and accounting informations for this job:
 ========================================================
  
                  Total CPU time used (sec):      458.174
                            User time (sec):      435.888
                          System time (sec):       22.286
                         Elapsed time (sec):      473.562
  
                   Maximum memory used (kb):      151656.
                   Average memory used (kb):           0.
  
                          Minor page faults:        88517
                          Major page faults:            0
                 Voluntary context switches:       112387
