 vasp.5.4.4.18Apr17-6-g9f103f2a35 (build Jun 20 2017 18:00:50) complex          
  
 executed on             LinuxIFC date 2020.05.13  10:24:30
 running on  256 total cores
 distrk:  each k-point on  128 cores,    2 groups
 distr:  one band on NCORES_PER_BAND=   8 cores,   16 groups


--------------------------------------------------------------------------------------------------------


 INCAR:
 POTCAR:    PAW_PBE Y_sv 25May2007                
 POTCAR:    PAW_PBE Ti 08Apr2002                  
 POTCAR:    PAW_PBE S 06Sep2000                   
 POTCAR:    PAW_PBE O 08Apr2002                   

 ----------------------------------------------------------------------------- 
|                                                                             |
|           W    W    AA    RRRRR   N    N  II  N    N   GGGG   !!!           |
|           W    W   A  A   R    R  NN   N  II  NN   N  G    G  !!!           |
|           W    W  A    A  R    R  N N  N  II  N N  N  G       !!!           |
|           W WW W  AAAAAA  RRRRR   N  N N  II  N  N N  G  GGG   !            |
|           WW  WW  A    A  R   R   N   NN  II  N   NN  G    G                |
|           W    W  A    A  R    R  N    N  II  N    N   GGGG   !!!           |
|                                                                             |
|      You have enabled k-point parallelism (KPAR>1).                         |
|      This developmental code was originally  written by Paul Kent at ORNL,  |
|      and carefully double checked in Vienna.                                |
|      GW as well as linear response parallelism added by Martijn Marsman     |
|      and Georg Kresse.                                                      |
|      Carefully verify results versus KPAR=1.                                |
|      Report problems to Paul Kent and Vienna.                               |
|                                                                             |
 ----------------------------------------------------------------------------- 

 POTCAR:    PAW_PBE Y_sv 25May2007                
   VRHFIN =Y: 4s4p5s4d                                                          
   LEXCH  = PE                                                                  
   EATOM  =  1046.9140 eV,   76.9460 Ry                                         
                                                                                
   TITEL  = PAW_PBE Y_sv 25May2007                                              
   LULTRA =        F    use ultrasoft PP ?                                      
   IUNSCR =        1    unscreen: 0-lin 1-nonlin 2-no                           
   RPACOR =    2.200    partial core radius                                     
   POMASS =   88.906; ZVAL   =   11.000    mass and valenz                      
   RCORE  =    2.800    outmost cutoff radius                                   
   RWIGS  =    3.430; RWIGS  =    1.815    wigner-seitz radius (au A)           
   ENMAX  =  202.626; ENMIN  =  151.970 eV                                      
   RCLOC  =    2.212    cutoff for local pot                                    
   LCOR   =        T    correct aug charges                                     
   LPAW   =        T    paw PP                                                  
   EAUG   =  470.889                                                            
   DEXC   =    0.000                                                            
   RMAX   =    2.863    core radius for proj-oper                               
   RAUG   =    1.300    factor for augmentation sphere                          
   RDEP   =    2.926    radius for radial grids                                 
   RDEPT  =    2.280    core radius for aug-charge                              
                                                                                
   Atomic configuration                                                         
   11 entries                                                                   
     n  l   j            E        occ.                                          
     1  0  0.50    -16863.0720   2.0000                                         
     2  0  0.50     -2309.2881   2.0000                                         
     2  1  1.50     -2055.5536   6.0000                                         
     3  0  0.50      -367.1837   2.0000                                         
     3  1  1.50      -284.8912   6.0000                                         
     3  2  2.50      -149.4324  10.0000                                         
     4  0  0.50       -46.3345   2.0000                                         
     5  0  0.50        -3.6387   1.0000                                         
     4  1  1.50       -26.3769   6.0000                                         
     4  2  2.50        -1.6291   2.0000                                         
     4  3  2.50        -1.3606   0.0000                                         
   Description                                                                  
     l       E           TYP  RCUT    TYP  RCUT                                 
     0    -46.3344714     23  2.600                                             
     0     -3.6387002     23  2.700                                             
     1    -26.3769044     23  2.600                                             
     1    -27.7374870     23  2.600                                             
     2     -1.6291019     23  2.600                                             
     2      0.1354037     23  2.600                                             
     3     -1.3605826     23  2.800                                             
  local pseudopotential read in
  partial core-charges read in
  partial kinetic energy density read in
  atomic valenz-charges read in
  non local Contribution for L=           0  read in
    real space projection operators read in
  non local Contribution for L=           0  read in
    real space projection operators read in
  non local Contribution for L=           1  read in
    real space projection operators read in
  non local Contribution for L=           1  read in
    real space projection operators read in
  non local Contribution for L=           2  read in
    real space projection operators read in
  non local Contribution for L=           2  read in
    real space projection operators read in
  non local Contribution for L=           3  read in
    real space projection operators read in
    PAW grid and wavefunctions read in
 
   number of l-projection  operators is LMAX  =           7
   number of lm-projection operators is LMMAX =          25
 
 POTCAR:    PAW_PBE Ti 08Apr2002                  
   VRHFIN =Ti: d3 s1                                                            
   LEXCH  = PE                                                                  
   EATOM  =    94.7928 eV,    6.9671 Ry                                         
                                                                                
   TITEL  = PAW_PBE Ti 08Apr2002                                                
   LULTRA =        F    use ultrasoft PP ?                                      
   IUNSCR =        1    unscreen: 0-lin 1-nonlin 2-no                           
   RPACOR =    2.200    partial core radius                                     
   POMASS =   47.880; ZVAL   =    4.000    mass and valenz                      
   RCORE  =    2.800    outmost cutoff radius                                   
   RWIGS  =    2.500; RWIGS  =    1.323    wigner-seitz radius (au A)           
   ENMAX  =  178.330; ENMIN  =  133.747 eV                                      
   RCLOC  =    2.215    cutoff for local pot                                    
   LCOR   =        T    correct aug charges                                     
   LPAW   =        T    paw PP                                                  
   EAUG   =  328.883                                                            
   DEXC   =    0.000                                                            
   RMAX   =    2.868    core radius for proj-oper                               
   RAUG   =    1.300    factor for augmentation sphere                          
   RDEP   =    2.885    radius for radial grids                                 
   RDEPT  =    2.320    core radius for aug-charge                              
                                                                                
   Atomic configuration                                                         
    9 entries                                                                   
     n  l   j            E        occ.                                          
     1  0  0.50     -4865.3608   2.0000                                         
     2  0  0.50      -533.1367   2.0000                                         
     2  1  1.50      -440.5031   6.0000                                         
     3  0  0.50       -59.3186   2.0000                                         
     3  1  1.50       -35.7012   6.0000                                         
     3  2  2.50        -1.9157   3.0000                                         
     4  0  0.50        -3.7291   1.0000                                         
     4  1  1.50        -4.0817   0.0000                                         
     4  3  2.50        -1.3606   0.0000                                         
   Description                                                                  
     l       E           TYP  RCUT    TYP  RCUT                                 
     2     -1.9156924     23  2.800                                             
     2     -0.4062961     23  2.800                                             
     0     -3.7290832     23  2.800                                             
     0     20.4087390     23  2.800                                             
     1     -5.4423304     23  2.800                                             
  local pseudopotential read in
  partial core-charges read in
  partial kinetic energy density read in
  atomic valenz-charges read in
  non local Contribution for L=           2  read in
    real space projection operators read in
  non local Contribution for L=           2  read in
    real space projection operators read in
  non local Contribution for L=           0  read in
    real space projection operators read in
  non local Contribution for L=           0  read in
    real space projection operators read in
  non local Contribution for L=           1  read in
    real space projection operators read in
    PAW grid and wavefunctions read in
 
   number of l-projection  operators is LMAX  =           5
   number of lm-projection operators is LMMAX =          15
 
 POTCAR:    PAW_PBE S 06Sep2000                   
   VRHFIN =S : s2p4                                                             
   LEXCH  = PE                                                                  
   EATOM  =   276.8230 eV,   20.3459 Ry                                         
                                                                                
   TITEL  = PAW_PBE S 06Sep2000                                                 
   LULTRA =        F    use ultrasoft PP ?                                      
   IUNSCR =        1    unscreen: 0-lin 1-nonlin 2-no                           
   RPACOR =    1.500    partial core radius                                     
   POMASS =   32.066; ZVAL   =    6.000    mass and valenz                      
   RCORE  =    1.900    outmost cutoff radius                                   
   RWIGS  =    2.200; RWIGS  =    1.164    wigner-seitz radius (au A)           
   ENMAX  =  258.689; ENMIN  =  194.016 eV                                      
   ICORE  =        2    local potential                                         
   LCOR   =        T    correct aug charges                                     
   LPAW   =        T    paw PP                                                  
   EAUG   =  335.092                                                            
   DEXC   =    0.000                                                            
   RMAX   =    1.942    core radius for proj-oper                               
   RAUG   =    1.300    factor for augmentation sphere                          
   RDEP   =    1.954    radius for radial grids                                 
   RDEPT  =    1.744    core radius for aug-charge                              
                                                                                
   Atomic configuration                                                         
    6 entries                                                                   
     n  l   j            E        occ.                                          
     1  0  0.50     -2405.8406   2.0000                                         
     2  0  0.50      -211.7007   2.0000                                         
     2  1  1.50      -156.4958   6.0000                                         
     3  0  0.50       -17.2562   2.0000                                         
     3  1  0.50        -7.0085   4.0000                                         
     3  2  1.50        -6.8029   0.0000                                         
   Description                                                                  
     l       E           TYP  RCUT    TYP  RCUT                                 
     0    -17.2561641     23  1.900                                             
     0    -15.8743224     23  1.900                                             
     1     -7.0085400     23  1.900                                             
     1     -2.7779785     23  1.900                                             
     2     -6.8029130     23  1.900                                             
  local pseudopotential read in
  partial core-charges read in
  partial kinetic energy density read in
  atomic valenz-charges read in
  non local Contribution for L=           0  read in
    real space projection operators read in
  non local Contribution for L=           0  read in
    real space projection operators read in
  non local Contribution for L=           1  read in
    real space projection operators read in
  non local Contribution for L=           1  read in
    real space projection operators read in
    PAW grid and wavefunctions read in
 
   number of l-projection  operators is LMAX  =           4
   number of lm-projection operators is LMMAX =           8
 
 POTCAR:    PAW_PBE O 08Apr2002                   
   VRHFIN =O: s2p4                                                              
   LEXCH  = PE                                                                  
   EATOM  =   432.3788 eV,   31.7789 Ry                                         
                                                                                
   TITEL  = PAW_PBE O 08Apr2002                                                 
   LULTRA =        F    use ultrasoft PP ?                                      
   IUNSCR =        1    unscreen: 0-lin 1-nonlin 2-no                           
   RPACOR =    1.200    partial core radius                                     
   POMASS =   16.000; ZVAL   =    6.000    mass and valenz                      
   RCORE  =    1.520    outmost cutoff radius                                   
   RWIGS  =    1.550; RWIGS  =    0.820    wigner-seitz radius (au A)           
   ENMAX  =  400.000; ENMIN  =  300.000 eV                                      
   ICORE  =        2    local potential                                         
   LCOR   =        T    correct aug charges                                     
   LPAW   =        T    paw PP                                                  
   EAUG   =  605.392                                                            
   DEXC   =    0.000                                                            
   RMAX   =    1.553    core radius for proj-oper                               
   RAUG   =    1.300    factor for augmentation sphere                          
   RDEP   =    1.550    radius for radial grids                                 
   RDEPT  =    1.329    core radius for aug-charge                              
                                                                                
   Atomic configuration                                                         
    4 entries                                                                   
     n  l   j            E        occ.                                          
     1  0  0.50      -514.6923   2.0000                                         
     2  0  0.50       -23.9615   2.0000                                         
     2  1  0.50        -9.0305   4.0000                                         
     3  2  1.50        -9.5241   0.0000                                         
   Description                                                                  
     l       E           TYP  RCUT    TYP  RCUT                                 
     0    -23.9615318     23  1.200                                             
     0     -9.5240782     23  1.200                                             
     1     -9.0304911     23  1.520                                             
     1      8.1634956     23  1.520                                             
     2     -9.5240782      7  1.500                                             
  local pseudopotential read in
  partial core-charges read in
  partial kinetic energy density read in
  kinetic energy density of atom read in
  atomic valenz-charges read in
  non local Contribution for L=           0  read in
    real space projection operators read in
  non local Contribution for L=           0  read in
    real space projection operators read in
  non local Contribution for L=           1  read in
    real space projection operators read in
  non local Contribution for L=           1  read in
    real space projection operators read in
    PAW grid and wavefunctions read in
 
   number of l-projection  operators is LMAX  =           4
   number of lm-projection operators is LMMAX =           8
 
 Optimization of the real space projectors (new method)

 maximal supplied QI-value         = 13.42
 optimisation between [QCUT,QGAM] = [ 11.67, 23.35] = [ 38.16,152.62] Ry 
 Optimized for a Real-space Cutoff    1.68 Angstroem

   l    n(q)    QCUT    max X(q) W(low)/X(q) W(high)/X(q)  e(spline) 
   0     12    11.673    14.902    0.22E-04    0.24E-05    0.52E-07
   0     12    11.673     9.294    0.34E-04    0.58E-05    0.89E-07
   1     11    11.673    69.520    0.10E-04    0.47E-04    0.49E-06
   1     11    11.673    72.085    0.10E-04    0.48E-04    0.50E-06
   2     11    11.673    62.934    0.94E-04    0.14E-04    0.82E-06
   2     11    11.673    49.749    0.91E-04    0.13E-04    0.79E-06
   3     10    11.673     8.311    0.92E-04    0.21E-04    0.59E-06
 Optimization of the real space projectors (new method)

 maximal supplied QI-value         = 13.42
 optimisation between [QCUT,QGAM] = [ 11.67, 23.35] = [ 38.16,152.62] Ry 
 Optimized for a Real-space Cutoff    1.58 Angstroem

   l    n(q)    QCUT    max X(q) W(low)/X(q) W(high)/X(q)  e(spline) 
   2     10    11.673    49.363    0.16E-03    0.28E-03    0.91E-06
   2     10    11.673    47.669    0.16E-03    0.27E-03    0.88E-06
   0     11    11.673    26.374    0.54E-04    0.10E-03    0.52E-06
   0     11    11.673    11.549    0.41E-04    0.83E-04    0.43E-06
   1     11    11.673     9.492    0.36E-04    0.11E-04    0.17E-06
 Optimization of the real space projectors (new method)

 maximal supplied QI-value         = 19.84
 optimisation between [QCUT,QGAM] = [ 11.51, 23.22] = [ 37.09,150.92] Ry 
 Optimized for a Real-space Cutoff    1.21 Angstroem

   l    n(q)    QCUT    max X(q) W(low)/X(q) W(high)/X(q)  e(spline) 
   0      8    11.508   187.594    0.96E-04    0.18E-03    0.54E-07
   0      8    11.508   164.243    0.96E-04    0.18E-03    0.54E-07
   1      8    11.508    67.533    0.18E-03    0.65E-04    0.94E-07
   1      8    11.508    50.729    0.18E-03    0.63E-04    0.92E-07
 Optimization of the real space projectors (new method)

 maximal supplied QI-value         = 24.76
 optimisation between [QCUT,QGAM] = [ 11.64, 23.27] = [ 37.91,151.63] Ry 
 Optimized for a Real-space Cutoff    1.14 Angstroem

   l    n(q)    QCUT    max X(q) W(low)/X(q) W(high)/X(q)  e(spline) 
   0      8    11.635    20.381    0.10E-03    0.33E-03    0.24E-06
   0      8    11.635    15.268    0.11E-03    0.35E-03    0.26E-06
   1      7    11.635     5.964    0.24E-03    0.31E-03    0.30E-06
   1      7    11.635     5.382    0.22E-03    0.25E-03    0.26E-06

 ----------------------------------------------------------------------------- 
|                                                                             |
|  ADVICE TO THIS USER RUNNING 'VASP/VAMP'   (HEAR YOUR MASTER'S VOICE ...):  |
|                                                                             |
|      You enforced a specific xc-type in the INCAR file,                     |
|      a different type was found on the POTCAR file                          |
|          I HOPE YOU KNOW, WHAT YOU ARE  DOING                               |
|                                                                             |
 ----------------------------------------------------------------------------- 

  PAW_PBE Y_sv 25May2007                :
 energy of atom  1       EATOM=-1046.9140
 kinetic energy error for atom=    0.0008 (will be added to EATOM!!)
  PAW_PBE Ti 08Apr2002                  :
 energy of atom  2       EATOM=  -94.7928
 kinetic energy error for atom=    0.0002 (will be added to EATOM!!)
  PAW_PBE S 06Sep2000                   :
 energy of atom  3       EATOM= -276.8230
 kinetic energy error for atom=    0.0016 (will be added to EATOM!!)
  PAW_PBE O 08Apr2002                   :
 energy of atom  4       EATOM= -432.3788
 kinetic energy error for atom=    0.0208 (will be added to EATOM!!)
 
 
 POSCAR: Y8 Ti8 S8 O20                           
  positions in direct lattice
  No initial velocities read in
 exchange correlation table for  LEXCH =       14
   RHO(1)=    0.500       N(1)  =     2000
   RHO(2)=  100.500       N(2)  =     4000
 


--------------------------------------------------------------------------------------------------------


 ion  position               nearest neighbor table
   1  0.500  0.500  0.479-  27 2.41  29 2.41  29 2.41  27 2.41  18 2.81  18 2.81  18 2.81  18 2.81
                            21 2.88  10 3.32  10 3.32  10 3.32  10 3.32
   2  0.000  0.000  0.271-  26 2.41  28 2.41  26 2.41  28 2.41  17 2.81  17 2.81  17 2.81  17 2.81
                             9 3.32   9 3.32   9 3.32   9 3.32
   3  0.000  0.000  0.354-  32 2.41  34 2.41  34 2.41  32 2.41  20 2.81  20 2.81  20 2.81  20 2.81
                            19 2.88  12 3.32  12 3.32  12 3.32  12 3.32
   4  0.500  0.500  0.396-  31 2.41  33 2.41  31 2.41  33 2.41  19 2.81  19 2.81  19 2.81  19 2.81
                            20 2.88  11 3.32  11 3.32  11 3.32  11 3.32
   5  0.500  0.500  0.729-  37 2.41  39 2.41  39 2.41  37 2.41  22 2.81  22 2.81  22 2.81  22 2.81
                            14 3.32  14 3.32  14 3.32  14 3.32
   6  0.000  0.000  0.521-  36 2.41  38 2.41  36 2.41  38 2.41  21 2.81  21 2.81  21 2.81  21 2.81
                            18 2.88  13 3.32  13 3.32  13 3.32  13 3.32
   7  0.000  0.000  0.604-  42 2.41  44 2.41  44 2.41  42 2.41  24 2.81  24 2.81  24 2.81  24 2.81
                            23 2.88  16 3.32  16 3.32  16 3.32  16 3.32
   8  0.500  0.500  0.646-  41 2.41  43 2.41  41 2.41  43 2.41  23 2.81  23 2.81  23 2.81  23 2.81
                            24 2.88  15 3.32  15 3.32  15 3.32  15 3.32
   9  0.500  0.500  0.292-  30 1.82  28 1.94  26 1.94  28 1.94  26 1.94  17 2.85   2 3.32   2 3.32
                             2 3.32   2 3.32
  10  0.000  0.000  0.458-  25 1.82  27 1.94  29 1.94  27 1.94  29 1.94  18 2.85   1 3.32   1 3.32
                             1 3.32   1 3.32
  11  0.000  0.000  0.417-  25 1.82  31 1.94  33 1.94  33 1.94  31 1.94  19 2.85   4 3.32   4 3.32
                             4 3.32   4 3.32
  12  0.500  0.500  0.333-  30 1.82  32 1.94  34 1.94  32 1.94  34 1.94  20 2.85   3 3.32   3 3.32
                             3 3.32   3 3.32
  13  0.500  0.500  0.542-  40 1.82  38 1.94  36 1.94  38 1.94  36 1.94  21 2.85   6 3.32   6 3.32
                             6 3.32   6 3.32
  14  0.000  0.000  0.708-  35 1.82  37 1.94  39 1.94  37 1.94  39 1.94  22 2.85   5 3.32   5 3.32
                             5 3.32   5 3.32
  15  0.000  0.000  0.667-  35 1.82  41 1.94  43 1.94  43 1.94  41 1.94  23 2.85   8 3.32   8 3.32
                             8 3.32   8 3.32
  16  0.500  0.500  0.583-  40 1.82  42 1.94  44 1.94  42 1.94  44 1.94  24 2.85   7 3.32   7 3.32
                             7 3.32   7 3.32
  17  0.500  0.500  0.261-   2 2.81   2 2.81   2 2.81   2 2.81   9 2.85
  18  0.000  0.000  0.489-   1 2.81   1 2.81   1 2.81   1 2.81  10 2.85   6 2.88
  19  0.000  0.000  0.386-   4 2.81   4 2.81   4 2.81   4 2.81  11 2.85   3 2.88
  20  0.500  0.500  0.364-   3 2.81   3 2.81   3 2.81   3 2.81  12 2.85   4 2.88
  21  0.500  0.500  0.511-   6 2.81   6 2.81   6 2.81   6 2.81  13 2.85   1 2.88
  22  0.000  0.000  0.739-   5 2.81   5 2.81   5 2.81   5 2.81  14 2.85
  23  0.000  0.000  0.636-   8 2.81   8 2.81   8 2.81   8 2.81  15 2.85   7 2.88
  24  0.500  0.500  0.614-   7 2.81   7 2.81   7 2.81   7 2.81  16 2.85   8 2.88
  25  0.000  0.000  0.438-  10 1.82  11 1.82
  26  0.000  0.500  0.287-   9 1.94   9 1.94   2 2.41   2 2.41
  27  0.000  0.500  0.463-  10 1.94  10 1.94   1 2.41   1 2.41
  28  0.500  0.000  0.287-   9 1.94   9 1.94   2 2.41   2 2.41
  29  0.500  0.000  0.463-  10 1.94  10 1.94   1 2.41   1 2.41
  30  0.500  0.500  0.312-   9 1.82  12 1.82
  31  0.500  0.000  0.412-  11 1.94  11 1.94   4 2.41   4 2.41
  32  0.500  0.000  0.338-  12 1.94  12 1.94   3 2.41   3 2.41
  33  0.000  0.500  0.412-  11 1.94  11 1.94   4 2.41   4 2.41
  34  0.000  0.500  0.338-  12 1.94  12 1.94   3 2.41   3 2.41
  35  0.000  0.000  0.688-  14 1.82  15 1.82
  36  0.000  0.500  0.537-  13 1.94  13 1.94   6 2.41   6 2.41
  37  0.000  0.500  0.713-  14 1.94  14 1.94   5 2.41   5 2.41
  38  0.500  0.000  0.537-  13 1.94  13 1.94   6 2.41   6 2.41
  39  0.500  0.000  0.713-  14 1.94  14 1.94   5 2.41   5 2.41
  40  0.500  0.500  0.562-  13 1.82  16 1.82
  41  0.500  0.000  0.662-  15 1.94  15 1.94   8 2.41   8 2.41
  42  0.500  0.000  0.588-  16 1.94  16 1.94   7 2.41   7 2.41
  43  0.000  0.500  0.662-  15 1.94  15 1.94   8 2.41   8 2.41
  44  0.000  0.500  0.588-  16 1.94  16 1.94   7 2.41   7 2.41
 
  LATTYP: Found a simple tetragonal cell.
 ALAT       =     3.7700230000
 C/A-ratio  =    24.0884615293
  
  Lattice vectors:
  
 A1 = (   3.7700230000,   0.0000000000,   0.0000000000)
 A2 = (   0.0000000000,   3.7700230000,   0.0000000000)
 A3 = (   0.0000000000,   0.0000000000,  90.8140540000)


Analysis of symmetry for initial positions (statically):
=====================================================================
 Subroutine PRICEL returns:
 Original cell was already a primitive cell.
 

 Routine SETGRP: Setting up the symmetry group for a 
 simple tetragonal supercell.


 Subroutine GETGRP returns: Found 16 space group operations
 (whereof  8 operations were pure point group operations)
 out of a pool of 16 trial point group operations.


The static configuration has the point symmetry C_4v.
 The point group associated with its full space group is D_4h.


Analysis of symmetry for dynamics (positions and initial velocities):
=====================================================================
 Subroutine PRICEL returns:
 Original cell was already a primitive cell.
 

 Routine SETGRP: Setting up the symmetry group for a 
 simple tetragonal supercell.


 Subroutine GETGRP returns: Found 16 space group operations
 (whereof  8 operations were pure point group operations)
 out of a pool of 16 trial point group operations.


The dynamic configuration has the point symmetry C_4v.
 The point group associated with its full space group is D_4h.


 Subroutine INISYM returns: Found 16 space group operations
 (whereof  8 operations are pure point group operations),
 and found     1 'primitive' translations

 
 
 KPOINTS: Automatic mesh                          

Automatic generation of k-mesh.
Space group operators:
 irot       det(A)        alpha          n_x          n_y          n_z        tau_x        tau_y        tau_z
    1     1.000000     0.000000     1.000000     0.000000     0.000000     0.000000     0.000000     0.000000
    2     1.000000    90.000000     0.000000     0.000000    -1.000000     0.000000     0.000000     0.000000
    3     1.000000   180.000000     0.000000     0.000000     1.000000     0.000000     0.000000     0.000000
    4     1.000000    90.000000     0.000000     0.000000     1.000000     0.000000     0.000000     0.000000
    5    -1.000000   180.000000     0.000000     1.000000     0.000000     0.000000     0.000000     0.000000
    6    -1.000000   180.000000     0.707107     0.707107     0.000000     0.000000     0.000000     0.000000
    7    -1.000000   180.000000     1.000000     0.000000     0.000000     0.000000     0.000000     0.000000
    8    -1.000000   180.000000     0.707107    -0.707107     0.000000     0.000000     0.000000     0.000000
    9    -1.000000     0.000000     1.000000     0.000000     0.000000     0.500000     0.500000     0.000000
   10    -1.000000    90.000000     0.000000     0.000000    -1.000000     0.500000     0.500000     0.000000
   11    -1.000000   180.000000     0.000000     0.000000     1.000000     0.500000     0.500000     0.000000
   12    -1.000000    90.000000     0.000000     0.000000     1.000000     0.500000     0.500000     0.000000
   13     1.000000   180.000000     0.000000     1.000000     0.000000     0.500000     0.500000     0.000000
   14     1.000000   180.000000     0.707107     0.707107     0.000000     0.500000     0.500000     0.000000
   15     1.000000   180.000000     1.000000     0.000000     0.000000     0.500000     0.500000     0.000000
   16     1.000000   180.000000     0.707107    -0.707107     0.000000     0.500000     0.500000     0.000000
 
 Subroutine IBZKPT returns following result:
 ===========================================
 
 Found     10 irreducible k-points:
 
 Following reciprocal coordinates:
            Coordinates               Weight
  0.000000  0.000000  0.000000      1.000000
  0.166667  0.000000  0.000000      4.000000
  0.333333  0.000000  0.000000      4.000000
  0.500000  0.000000  0.000000      2.000000
  0.166667  0.166667  0.000000      4.000000
  0.333333  0.166667  0.000000      8.000000
  0.500000  0.166667  0.000000      4.000000
  0.333333  0.333333  0.000000      4.000000
  0.500000  0.333333  0.000000      4.000000
  0.500000  0.500000  0.000000      1.000000
 
 Following cartesian coordinates:
            Coordinates               Weight
  0.000000  0.000000  0.000000      1.000000
  0.044208  0.000000  0.000000      4.000000
  0.088417  0.000000  0.000000      4.000000
  0.132625  0.000000  0.000000      2.000000
  0.044208  0.044208  0.000000      4.000000
  0.088417  0.044208  0.000000      8.000000
  0.132625  0.044208  0.000000      4.000000
  0.088417  0.088417  0.000000      4.000000
  0.132625  0.088417  0.000000      4.000000
  0.132625  0.132625  0.000000      1.000000
 


--------------------------------------------------------------------------------------------------------




 Dimension of arrays:
   k-points           NKPTS =     10   k-points in BZ     NKDIM =     10   number of bands    NBANDS=    176
   number of dos      NEDOS =   2000   number of ions     NIONS =     44
   non local maximal  LDIM  =      7   non local SUM 2l+1 LMDIM =     25
   total plane-waves  NPLWV = 537824
   max r-space proj   IRMAX =   8267   max aug-charges    IRDMAX=  30235
   dimension x,y,z NGX =    28 NGY =   28 NGZ =  686
   dimension x,y,z NGXF=    56 NGYF=   56 NGZF= 1372
   support grid    NGXF=    56 NGYF=   56 NGZF= 1372
   ions per type =               8   8   8  20
   NGX,Y,Z   is equivalent  to a cutoff of  12.35, 12.35, 12.56 a.u.
   NGXF,Y,Z  is equivalent  to a cutoff of  24.69, 24.69, 25.12 a.u.

 SYSTEM =  Generic Input                           
 POSCAR =  Y8 Ti8 S8 O20                           

 Startparameter for this run:
   NWRITE =      2    write-flag & timer
   PREC   = accura    normal or accurate (medium, high low for compatibility)
   ISTART =      0    job   : 0-new  1-cont  2-samecut
   ICHARG =      2    charge: 1-file 2-atom 10-const
   ISPIN  =      1    spin polarized calculation?
   LNONCOLLINEAR =      F non collinear calculations
   LSORBIT =      F    spin-orbit coupling
   INIWAV =      1    electr: 0-lowe 1-rand  2-diag
   LASPH  =      T    aspherical Exc in radial PAW
   METAGGA=      F    non-selfconsistent MetaGGA calc.

 Electronic Relaxation 1
   ENCUT  =  520.0 eV  38.22 Ry    6.18 a.u.   7.01  7.01168.85*2*pi/ulx,y,z
   ENINI  =  520.0     initial cutoff
   ENAUG  =  605.4 eV  augmentation charge cutoff
   NELM   =    200;   NELMIN=  2; NELMDL=  0     # of ELM steps 
   EDIFF  = 0.1E-05   stopping-criterion for ELM
   LREAL  =      T    real-space projection
   NLSPLINE    = F    spline interpolate recip. space projectors
   LCOMPAT=      F    compatible to vasp.4.4
   GGA_COMPAT  = T    GGA compatible to vasp.4.4-vasp.4.6
   LMAXPAW     = -100 max onsite density
   LMAXMIX     =    2 max onsite mixed and CHGCAR
   VOSKOWN=      0    Vosko Wilk Nusair interpolation
   ROPT   =   -0.00025  -0.00025  -0.00025  -0.00025
 Ionic relaxation
   EDIFFG = -.1E-01   stopping-criterion for IOM
   NSW    =      0    number of steps for IOM
   NBLOCK =      1;   KBLOCK =      1    inner block; outer block 
   IBRION =     -1    ionic relax: 0-MD 1-quasi-New 2-CG
   NFREE  =      0    steps in history (QN), initial steepest desc. (CG)
   ISIF   =      2    stress and relaxation
   IWAVPR =     11    prediction:  0-non 1-charg 2-wave 3-comb
   ISYM   =      2    0-nonsym 1-usesym 2-fastsym
   LCORR  =      T    Harris-Foulkes like correction to forces

   POTIM  = 0.5000    time-step for ionic-motion
   TEIN   =    0.0    initial temperature
   TEBEG  =    0.0;   TEEND  =   0.0 temperature during run
   SMASS  =  -3.00    Nose mass-parameter (am)
   estimated Nose-frequenzy (Omega)   =  0.10E-29 period in steps =****** mass=  -0.325E-27a.u.
   SCALEE = 1.0000    scale energy and forces
   NPACO  =    256;   APACO  = 16.0  distance and # of slots for P.C.
   PSTRESS=    0.0 pullay stress

  Mass of Ions in am
   POMASS =  88.91 47.88 32.07 16.00
  Ionic Valenz
   ZVAL   =  11.00  4.00  6.00  6.00
  Atomic Wigner-Seitz radii
   RWIGS  =  -1.00 -1.00 -1.00 -1.00
  virtual crystal weights 
   VCA    =   1.00  1.00  1.00  1.00
   NELECT =     288.0000    total number of electrons
   NUPDOWN=      -1.0000    fix difference up-down

 DOS related values:
   EMIN   =  10.00;   EMAX   =-10.00  energy-range for DOS
   EFERMI =   0.00
   ISMEAR =     0;   SIGMA  =   0.02  broadening in eV -4-tet -1-fermi 0-gaus

 Electronic relaxation 2 (details)
   IALGO  =     38    algorithm
   LDIAG  =      T    sub-space diagonalisation (order eigenvalues)
   LSUBROT=      F    optimize rotation matrix (better conditioning)
   TURBO    =      0    0=normal 1=particle mesh
   IRESTART =      0    0=no restart 2=restart with 2 vectors
   NREBOOT  =      0    no. of reboots
   NMIN     =      0    reboot dimension
   EREF     =   0.00    reference energy to select bands
   IMIX   =      4    mixing-type and parameters
     AMIX     =   0.40;   BMIX     =  1.00
     AMIX_MAG =   1.60;   BMIX_MAG =  1.00
     AMIN     =   0.05
     WC   =   100.;   INIMIX=   1;  MIXPRE=   1;  MAXMIX= -45

 Intra band minimization:
   WEIMIN = 0.0000     energy-eigenvalue tresh-hold
   EBREAK =  0.14E-08  absolut break condition
   DEPER  =   0.30     relativ break condition  

   TIME   =   0.40     timestep for ELM

  volume/ion in A,a.u.               =      29.34       197.96
  Fermi-wavevector in a.u.,A,eV,Ry     =   0.992945  1.876394 13.414532  0.985940
  Thomas-Fermi vector in A             =   2.124793
 
 Write flags
   LWAVE        =      F    write WAVECAR
   LDOWNSAMPLE  =      F    k-point downsampling of WAVECAR
   LCHARG       =      F    write CHGCAR
   LVTOT        =      F    write LOCPOT, total local potential
   LVHAR        =      T    write LOCPOT, Hartree potential only
   LELF         =      F    write electronic localiz. function (ELF)
   LORBIT       =     11    0 simple, 1 ext, 2 COOP (PROOUT), +10 PAW based schemes


 Dipole corrections
   LMONO  =      F    monopole corrections only (constant potential shift)
   LDIPOL =      F    correct potential (dipole corrections)
   IDIPOL =      0    1-x, 2-y, 3-z, 4-all directions 
   EPSILON=  1.0000000 bulk dielectric constant

 Core level calculations are selected ICORELEVEL =  1
 Exchange correlation treatment:
   GGA     =    PS    GGA type
   LEXCH   =    14    internal setting for exchange type
   VOSKOWN=      0    Vosko Wilk Nusair interpolation
   LHFCALC =     F    Hartree Fock is set to
   LHFONE  =     F    Hartree Fock one center treatment
   AEXX    =    0.0000 exact exchange contribution

 Linear response parameters
   LEPSILON=     F    determine dielectric tensor
   LRPA    =     F    only Hartree local field effects (RPA)
   LNABLA  =     F    use nabla operator in PAW spheres
   LVEL    =     F    velocity operator in full k-point grid
   LINTERFAST=   F  fast interpolation
   KINTER  =     0    interpolate to denser k-point grid
   CSHIFT  =0.1000    complex shift for real part using Kramers Kronig
   OMEGAMAX=  -1.0    maximum frequency
   DEG_THRESHOLD= 0.2000000E-02 threshold for treating states as degnerate
   RTIME   =   -0.100 relaxation time in fs
  (WPLASMAI=    0.000 imaginary part of plasma frequency in eV, 0.658/RTIME)
   DFIELD  = 0.0000000 0.0000000 0.0000000 field for delta impulse in time
 
 Orbital magnetization related:
   ORBITALMAG=     F  switch on orbital magnetization
   LCHIMAG   =     F  perturbation theory with respect to B field
   DQ        =  0.001000  dq finite difference perturbation B field
   LLRAUG    =     F  two centre corrections for induced B field



--------------------------------------------------------------------------------------------------------


 Static calculation
 charge density and potential will be updated during run
 non-spin polarized calculation
 Variant of blocked Davidson
 Davidson routine will perform the subspace rotation
 perform sub-space diagonalisation
    after iterative eigenvector-optimisation
 modified Broyden-mixing scheme, WC =      100.0
 initial mixing is a Kerker type mixing with AMIX =  0.4000 and BMIX =      1.0000
 Hartree-type preconditioning will be used
 using additional bands           32
 real space projection scheme for non local part
 use partial core corrections
 calculate Harris-corrections to forces 
   (improved forces if not selfconsistent)
 use gradient corrections 
 use of overlap-Matrix (Vanderbilt PP)
 Gauss-broadening in eV      SIGMA  =   0.02


--------------------------------------------------------------------------------------------------------


  energy-cutoff  :      520.00
  volume of cell :     1290.75
      direct lattice vectors                 reciprocal lattice vectors
     3.770023000  0.000000000  0.000000000     0.265250371  0.000000000  0.000000000
     0.000000000  3.770023000  0.000000000     0.000000000  0.265250371  0.000000000
     0.000000000  0.000000000 90.814054000     0.000000000  0.000000000  0.011011512

  length of vectors
     3.770023000  3.770023000 90.814054000     0.265250371  0.265250371  0.011011512


 
 k-points in units of 2pi/SCALE and weight: Automatic mesh                          
   0.00000000  0.00000000  0.00000000       0.028
   0.04420840  0.00000000  0.00000000       0.111
   0.08841679  0.00000000  0.00000000       0.111
   0.13262519  0.00000000  0.00000000       0.056
   0.04420840  0.04420840  0.00000000       0.111
   0.08841679  0.04420840  0.00000000       0.222
   0.13262519  0.04420840  0.00000000       0.111
   0.08841679  0.08841679  0.00000000       0.111
   0.13262519  0.08841679  0.00000000       0.111
   0.13262519  0.13262519  0.00000000       0.028
 
 k-points in reciprocal lattice and weights: Automatic mesh                          
   0.00000000  0.00000000  0.00000000       0.028
   0.16666667  0.00000000  0.00000000       0.111
   0.33333333  0.00000000  0.00000000       0.111
   0.50000000  0.00000000  0.00000000       0.056
   0.16666667  0.16666667  0.00000000       0.111
   0.33333333  0.16666667  0.00000000       0.222
   0.50000000  0.16666667  0.00000000       0.111
   0.33333333  0.33333333  0.00000000       0.111
   0.50000000  0.33333333  0.00000000       0.111
   0.50000000  0.50000000  0.00000000       0.028
 
 position of ions in fractional coordinates (direct lattice) 
   0.50000000  0.50000000  0.47930700
   0.00000000  0.00000000  0.27069300
   0.00000000  0.00000000  0.35430700
   0.50000000  0.50000000  0.39569300
   0.50000000  0.50000000  0.72930700
   0.00000000  0.00000000  0.52069300
   0.00000000  0.00000000  0.60430700
   0.50000000  0.50000000  0.64569300
   0.50000000  0.50000000  0.29247200
   0.00000000  0.00000000  0.45752800
   0.00000000  0.00000000  0.41747200
   0.50000000  0.50000000  0.33252800
   0.50000000  0.50000000  0.54247200
   0.00000000  0.00000000  0.70752800
   0.00000000  0.00000000  0.66747200
   0.50000000  0.50000000  0.58252800
   0.50000000  0.50000000  0.26105200
   0.00000000  0.00000000  0.48894800
   0.00000000  0.00000000  0.38605200
   0.50000000  0.50000000  0.36394800
   0.50000000  0.50000000  0.51105200
   0.00000000  0.00000000  0.73894800
   0.00000000  0.00000000  0.63605200
   0.50000000  0.50000000  0.61394800
   0.00000000  0.00000000  0.43750000
   0.00000000  0.50000000  0.28721900
   0.00000000  0.50000000  0.46278100
   0.50000000  0.00000000  0.28721900
   0.50000000  0.00000000  0.46278100
   0.50000000  0.50000000  0.31250000
   0.50000000  0.00000000  0.41221900
   0.50000000  0.00000000  0.33778100
   0.00000000  0.50000000  0.41221900
   0.00000000  0.50000000  0.33778100
   0.00000000  0.00000000  0.68750000
   0.00000000  0.50000000  0.53721900
   0.00000000  0.50000000  0.71278100
   0.50000000  0.00000000  0.53721900
   0.50000000  0.00000000  0.71278100
   0.50000000  0.50000000  0.56250000
   0.50000000  0.00000000  0.66221900
   0.50000000  0.00000000  0.58778100
   0.00000000  0.50000000  0.66221900
   0.00000000  0.50000000  0.58778100
 
 position of ions in cartesian coordinates  (Angst):
   1.88501150  1.88501150 43.52781178
   0.00000000  0.00000000 24.58272872
   0.00000000  0.00000000 32.17605503
   1.88501150  1.88501150 35.93448547
   1.88501150  1.88501150 66.23132528
   0.00000000  0.00000000 47.28624222
   0.00000000  0.00000000 54.87956853
   1.88501150  1.88501150 58.63799897
   1.88501150  1.88501150 26.56056800
   0.00000000  0.00000000 41.54997250
   0.00000000  0.00000000 37.91232475
   1.88501150  1.88501150 30.19821575
   1.88501150  1.88501150 49.26408150
   0.00000000  0.00000000 64.25348600
   0.00000000  0.00000000 60.61583825
   1.88501150  1.88501150 52.90172925
   1.88501150  1.88501150 23.70719042
   0.00000000  0.00000000 44.40335008
   0.00000000  0.00000000 35.05894717
   1.88501150  1.88501150 33.05159333
   1.88501150  1.88501150 46.41070392
   0.00000000  0.00000000 67.10686358
   0.00000000  0.00000000 57.76246067
   1.88501150  1.88501150 55.75510683
   0.00000000  0.00000000 39.73114863
   0.00000000  1.88501150 26.08352178
   0.00000000  1.88501150 42.02701872
   1.88501150  0.00000000 26.08352178
   1.88501150  0.00000000 42.02701872
   1.88501150  1.88501150 28.37939187
   1.88501150  0.00000000 37.43527853
   1.88501150  0.00000000 30.67526197
   0.00000000  1.88501150 37.43527853
   0.00000000  1.88501150 30.67526197
   0.00000000  0.00000000 62.43466213
   0.00000000  1.88501150 48.78703528
   0.00000000  1.88501150 64.73053222
   1.88501150  0.00000000 48.78703528
   1.88501150  0.00000000 64.73053222
   1.88501150  1.88501150 51.08290537
   1.88501150  0.00000000 60.13879203
   1.88501150  0.00000000 53.37877547
   0.00000000  1.88501150 60.13879203
   0.00000000  1.88501150 53.37877547
 


--------------------------------------------------------------------------------------------------------


 k-point  1 :   0.0000 0.0000 0.0000  plane waves:   34349
 k-point  2 :   0.1667 0.0000 0.0000  plane waves:   34534
 k-point  3 :   0.3333 0.0000 0.0000  plane waves:   34652
 k-point  4 :   0.5000 0.0000 0.0000  plane waves:   34774
 k-point  5 :   0.1667 0.1667 0.0000  plane waves:   34716
 k-point  6 :   0.3333 0.1667 0.0000  plane waves:   34766
 k-point  7 :   0.5000 0.1667 0.0000  plane waves:   34856
 k-point  8 :   0.3333 0.3333 0.0000  plane waves:   34854
 k-point  9 :   0.5000 0.3333 0.0000  plane waves:   34852
 k-point 10 :   0.5000 0.5000 0.0000  plane waves:   34836

 maximum and minimum number of plane-waves per node :      4390     4260

 maximum number of plane-waves:     34856
 maximum index in each direction: 
   IXMAX=    7   IYMAX=    7   IZMAX=  168
   IXMIN=   -7   IYMIN=   -7   IZMIN= -168


 real space projection operators:
  total allocation   :      23430.34 KBytes
  max/ min on nodes  :       3316.65       2528.52


 parallel 3D FFT for wavefunctions:
    minimum data exchange during FFTs selected (reduces bandwidth)
 parallel 3D FFT for charge:
    minimum data exchange during FFTs selected (reduces bandwidth)


 total amount of memory used by VASP MPI-rank0    61519. kBytes
=======================================================================

   base      :      30000. kBytes
   nonlr-proj:      10270. kBytes
   fftplans  :       4572. kBytes
   grid      :       8613. kBytes
   one-center:        180. kBytes
   wavefun   :       7884. kBytes
 
     INWAV:  cpu time    0.0000: real time    0.0000
 Broyden mixing: mesh for mixing (old mesh)
   NGX = 15   NGY = 15   NGZ =337
  (NGX  = 56   NGY  = 56   NGZ  =***)
  gives a total of  75825 points

 initial charge density was supplied:
 charge density of overlapping atoms calculated
 number of electron     288.0000000 magnetization 
 keeping initial charge density in first step


--------------------------------------------------------------------------------------------------------


 Maximum index for non-local projection operator         1232
 Maximum index for augmentation-charges         1147 (set IRDMAX)


--------------------------------------------------------------------------------------------------------


 First call to EWALD:  gamma=   0.163
 Maximum number of real-space cells 7x 7x 1
 Maximum number of reciprocal cells 1x 1x19

    FEWALD:  cpu time    0.0153: real time    0.0153


--------------------------------------- Iteration      1(   1)  ---------------------------------------


    POTLOK:  cpu time    0.1885: real time    0.1906
    SETDIJ:  cpu time    0.4452: real time    0.4452
     EDDAV:  cpu time    7.6022: real time    8.0168
       DOS:  cpu time    0.0033: real time    0.0037
    --------------------------------------------
      LOOP:  cpu time    8.2393: real time    8.6563

 eigenvalue-minimisations  :  3632
 total energy-change (2. order) : 0.3142812E+04  (-0.1257600E+05)
 number of electron     288.0000000 magnetization 
 augmentation part      288.0000000 magnetization 

 Free energy of the ion-electron system (eV)
  ---------------------------------------------------
  alpha Z        PSCENC =       672.39487585
  Ewald energy   TEWEN  =    987064.54898173
  -Hartree energ DENC   =  -1005112.26671989
  -exchange      EXHF   =         0.00000000
  -V(xc)+E(xc)   XCENC  =       711.77774774
  PAW double counting   =     16075.50318149   -15645.87640431
  entropy T*S    EENTRO =        -0.00593009
  eigenvalues    EBANDS =      -570.29077657
  atomic energy  EATOM  =     19947.02745206
  Solvation  Ediel_sol  =         0.00000000
  ---------------------------------------------------
  free energy    TOTEN  =      3142.81240803 eV

  energy without entropy =     3142.81833813  energy(sigma->0) =     3142.81537308


--------------------------------------------------------------------------------------------------------




--------------------------------------- Iteration      1(   2)  ---------------------------------------


     EDDAV:  cpu time    7.5214: real time    7.8235
       DOS:  cpu time    0.0013: real time    0.0017
    --------------------------------------------
      LOOP:  cpu time    7.5227: real time    7.8251

 eigenvalue-minimisations  :  4112
 total energy-change (2. order) :-0.2896929E+04  (-0.2764096E+04)
 number of electron     288.0000000 magnetization 
 augmentation part      288.0000000 magnetization 

 Free energy of the ion-electron system (eV)
  ---------------------------------------------------
  alpha Z        PSCENC =       672.39487585
  Ewald energy   TEWEN  =    987064.54898173
  -Hartree energ DENC   =  -1005112.26671989
  -exchange      EXHF   =         0.00000000
  -V(xc)+E(xc)   XCENC  =       711.77774774
  PAW double counting   =     16075.50318149   -15645.87640431
  entropy T*S    EENTRO =        -0.00236911
  eigenvalues    EBANDS =     -3467.22339762
  atomic energy  EATOM  =     19947.02745206
  Solvation  Ediel_sol  =         0.00000000
  ---------------------------------------------------
  free energy    TOTEN  =       245.88334796 eV

  energy without entropy =      245.88571708  energy(sigma->0) =      245.88453252


--------------------------------------------------------------------------------------------------------




--------------------------------------- Iteration      1(   3)  ---------------------------------------


     EDDAV:  cpu time    6.8069: real time    6.8665
       DOS:  cpu time    0.0010: real time    0.0010
    --------------------------------------------
      LOOP:  cpu time    6.8079: real time    6.8675

 eigenvalue-minimisations  :  4784
 total energy-change (2. order) :-0.6744346E+03  (-0.6640623E+03)
 number of electron     288.0000000 magnetization 
 augmentation part      288.0000000 magnetization 

 Free energy of the ion-electron system (eV)
  ---------------------------------------------------
  alpha Z        PSCENC =       672.39487585
  Ewald energy   TEWEN  =    987064.54898173
  -Hartree energ DENC   =  -1005112.26671989
  -exchange      EXHF   =         0.00000000
  -V(xc)+E(xc)   XCENC  =       711.77774774
  PAW double counting   =     16075.50318149   -15645.87640431
  entropy T*S    EENTRO =        -0.00000000
  eigenvalues    EBANDS =     -4141.66041561
  atomic energy  EATOM  =     19947.02745206
  Solvation  Ediel_sol  =         0.00000000
  ---------------------------------------------------
  free energy    TOTEN  =      -428.55130092 eV

  energy without entropy =     -428.55130092  energy(sigma->0) =     -428.55130092


--------------------------------------------------------------------------------------------------------




--------------------------------------- Iteration      1(   4)  ---------------------------------------


     EDDAV:  cpu time    6.8447: real time    6.8468
       DOS:  cpu time    0.0019: real time    0.0020
    --------------------------------------------
      LOOP:  cpu time    6.8466: real time    6.8488

 eigenvalue-minimisations  :  4592
 total energy-change (2. order) :-0.4013954E+02  (-0.3998616E+02)
 number of electron     288.0000000 magnetization 
 augmentation part      288.0000000 magnetization 

 Free energy of the ion-electron system (eV)
  ---------------------------------------------------
  alpha Z        PSCENC =       672.39487585
  Ewald energy   TEWEN  =    987064.54898173
  -Hartree energ DENC   =  -1005112.26671989
  -exchange      EXHF   =         0.00000000
  -V(xc)+E(xc)   XCENC  =       711.77774774
  PAW double counting   =     16075.50318149   -15645.87640431
  entropy T*S    EENTRO =        -0.00000000
  eigenvalues    EBANDS =     -4181.79995747
  atomic energy  EATOM  =     19947.02745206
  Solvation  Ediel_sol  =         0.00000000
  ---------------------------------------------------
  free energy    TOTEN  =      -468.69084277 eV

  energy without entropy =     -468.69084277  energy(sigma->0) =     -468.69084277


--------------------------------------------------------------------------------------------------------




--------------------------------------- Iteration      1(   5)  ---------------------------------------


     EDDAV:  cpu time    9.6093: real time    9.6221
       DOS:  cpu time    0.0011: real time    0.0014
    CHARGE:  cpu time    0.3966: real time    0.3966
    MIXING:  cpu time    0.0022: real time    0.0022
    --------------------------------------------
      LOOP:  cpu time   10.0091: real time   10.0224

 eigenvalue-minimisations  :  6400
 total energy-change (2. order) :-0.3780959E+01  (-0.3778596E+01)
 number of electron     287.9999825 magnetization 
 augmentation part       29.9191418 magnetization 

 Broyden mixing:
  rms(total) = 0.12178E+02    rms(broyden)= 0.12178E+02
  rms(prec ) = 0.12189E+02
  weight for this iteration     100.00

 Free energy of the ion-electron system (eV)
  ---------------------------------------------------
  alpha Z        PSCENC =       672.39487585
  Ewald energy   TEWEN  =    987064.54898173
  -Hartree energ DENC   =  -1005112.26671989
  -exchange      EXHF   =         0.00000000
  -V(xc)+E(xc)   XCENC  =       711.77774774
  PAW double counting   =     16075.50318149   -15645.87640431
  entropy T*S    EENTRO =        -0.00000000
  eigenvalues    EBANDS =     -4185.58091616
  atomic energy  EATOM  =     19947.02745206
  Solvation  Ediel_sol  =         0.00000000
  ---------------------------------------------------
  free energy    TOTEN  =      -472.47180147 eV

  energy without entropy =     -472.47180147  energy(sigma->0) =     -472.47180147


--------------------------------------------------------------------------------------------------------




--------------------------------------- Iteration      1(   6)  ---------------------------------------


    POTLOK:  cpu time    0.0941: real time    0.0984
    SETDIJ:  cpu time    0.4115: real time    0.4117
     EDDAV:  cpu time    7.1804: real time    7.3964
       DOS:  cpu time    0.0011: real time    0.0014
    CHARGE:  cpu time    0.2865: real time    0.2865
    MIXING:  cpu time    0.0062: real time    0.0062
    --------------------------------------------
      LOOP:  cpu time    7.9798: real time    8.2006

 eigenvalue-minimisations  :  5088
 total energy-change (2. order) : 0.8308200E+02  (-0.5070434E+02)
 number of electron     287.9999875 magnetization 
 augmentation part       33.1342386 magnetization 

 Broyden mixing:
  rms(total) = 0.75044E+01    rms(broyden)= 0.75040E+01
  rms(prec ) = 0.75065E+01
  weight for this iteration     100.00

 eigenvalues of (default mixing * dielectric matrix)
  average eigenvalue GAMMA=   1.1013
  1.1013

 Free energy of the ion-electron system (eV)
  ---------------------------------------------------
  alpha Z        PSCENC =       672.39487585
  Ewald energy   TEWEN  =    987064.54898173
  -Hartree energ DENC   =  -1005521.68772217
  -exchange      EXHF   =         0.00000000
  -V(xc)+E(xc)   XCENC  =       746.12535950
  PAW double counting   =     21947.73979785   -21539.83572031
  entropy T*S    EENTRO =        -0.00000000
  eigenvalues    EBANDS =     -3705.70282758
  atomic energy  EATOM  =     19947.02745206
  Solvation  Ediel_sol  =         0.00000000
  ---------------------------------------------------
  free energy    TOTEN  =      -389.38980305 eV

  energy without entropy =     -389.38980305  energy(sigma->0) =     -389.38980305


--------------------------------------------------------------------------------------------------------




--------------------------------------- Iteration      1(   7)  ---------------------------------------


    POTLOK:  cpu time    0.0896: real time    0.0921
    SETDIJ:  cpu time    0.4183: real time    0.4183
     EDDAV:  cpu time    7.0569: real time    7.0853
       DOS:  cpu time    0.0013: real time    0.0013
    CHARGE:  cpu time    0.3699: real time    0.4128
    MIXING:  cpu time    0.0032: real time    0.0070
    --------------------------------------------
      LOOP:  cpu time    7.9391: real time    8.0169

 eigenvalue-minimisations  :  4992
 total energy-change (2. order) :-0.4312177E+01  (-0.1559874E+02)
 number of electron     287.9999856 magnetization 
 augmentation part       29.2369019 magnetization 

 Broyden mixing:
  rms(total) = 0.55693E+01    rms(broyden)= 0.55693E+01
  rms(prec ) = 0.55715E+01
  weight for this iteration     100.00

 eigenvalues of (default mixing * dielectric matrix)
  average eigenvalue GAMMA=   1.9393
  0.7192  3.1595

 Free energy of the ion-electron system (eV)
  ---------------------------------------------------
  alpha Z        PSCENC =       672.39487585
  Ewald energy   TEWEN  =    987064.54898173
  -Hartree energ DENC   =  -1005407.87252030
  -exchange      EXHF   =         0.00000000
  -V(xc)+E(xc)   XCENC  =       733.15350766
  PAW double counting   =     26395.79900965   -26000.32618699
  entropy T*S    EENTRO =        -0.00000000
  eigenvalues    EBANDS =     -3798.42709966
  atomic energy  EATOM  =     19947.02745206
  Solvation  Ediel_sol  =         0.00000000
  ---------------------------------------------------
  free energy    TOTEN  =      -393.70197999 eV

  energy without entropy =     -393.70197999  energy(sigma->0) =     -393.70197999


--------------------------------------------------------------------------------------------------------




--------------------------------------- Iteration      1(   8)  ---------------------------------------


    POTLOK:  cpu time    0.0822: real time    0.0935
    SETDIJ:  cpu time    0.4077: real time    0.4242
     EDDAV:  cpu time    9.4616: real time    9.9716
       DOS:  cpu time    0.0030: real time    0.0032
    CHARGE:  cpu time    0.3915: real time    0.3915
    MIXING:  cpu time    0.0113: real time    0.0113
    --------------------------------------------
      LOOP:  cpu time   10.3572: real time   10.8953

 eigenvalue-minimisations  :  5120
 total energy-change (2. order) : 0.2786410E+01  (-0.5815257E+01)
 number of electron     287.9999867 magnetization 
 augmentation part       33.2252708 magnetization 

 Broyden mixing:
  rms(total) = 0.27282E+01    rms(broyden)= 0.27281E+01
  rms(prec ) = 0.27329E+01
  weight for this iteration     100.00

 eigenvalues of (default mixing * dielectric matrix)
  average eigenvalue GAMMA=   1.3661
  2.3639  1.1250  0.6094

 Free energy of the ion-electron system (eV)
  ---------------------------------------------------
  alpha Z        PSCENC =       672.39487585
  Ewald energy   TEWEN  =    987064.54898173
  -Hartree energ DENC   =  -1005487.77547204
  -exchange      EXHF   =         0.00000000
  -V(xc)+E(xc)   XCENC  =       739.63453970
  PAW double counting   =     36826.56966098   -36435.29191576
  entropy T*S    EENTRO =        -0.00126726
  eigenvalues    EBANDS =     -3718.02242491
  atomic energy  EATOM  =     19947.02745206
  Solvation  Ediel_sol  =         0.00000000
  ---------------------------------------------------
  free energy    TOTEN  =      -390.91556964 eV

  energy without entropy =     -390.91430238  energy(sigma->0) =     -390.91493601


--------------------------------------------------------------------------------------------------------




--------------------------------------- Iteration      1(   9)  ---------------------------------------


    POTLOK:  cpu time    0.1120: real time    0.1142
    SETDIJ:  cpu time    0.4460: real time    0.4460
     EDDAV:  cpu time    8.5962: real time    9.0055
       DOS:  cpu time    0.0010: real time    0.0014
    CHARGE:  cpu time    0.2920: real time    0.2919
    MIXING:  cpu time    0.0027: real time    0.0027
    --------------------------------------------
      LOOP:  cpu time    9.4499: real time    9.8618

 eigenvalue-minimisations  :  4736
 total energy-change (2. order) : 0.2879265E+01  (-0.2406883E+01)
 number of electron     287.9999859 magnetization 
 augmentation part       30.0948530 magnetization 

 Broyden mixing:
  rms(total) = 0.53370E+00    rms(broyden)= 0.53363E+00
  rms(prec ) = 0.53510E+00
  weight for this iteration     100.00

 eigenvalues of (default mixing * dielectric matrix)
  average eigenvalue GAMMA=   1.3479
  2.5723  1.1179  1.1179  0.5837

 Free energy of the ion-electron system (eV)
  ---------------------------------------------------
  alpha Z        PSCENC =       672.39487585
  Ewald energy   TEWEN  =    987064.54898173
  -Hartree energ DENC   =  -1005472.16887841
  -exchange      EXHF   =         0.00000000
  -V(xc)+E(xc)   XCENC  =       736.54657670
  PAW double counting   =     33408.23988078   -33013.03354512
  entropy T*S    EENTRO =        -0.00000000
  eigenvalues    EBANDS =     -3731.59164831
  atomic energy  EATOM  =     19947.02745206
  Solvation  Ediel_sol  =         0.00000000
  ---------------------------------------------------
  free energy    TOTEN  =      -388.03630469 eV

  energy without entropy =     -388.03630469  energy(sigma->0) =     -388.03630469


--------------------------------------------------------------------------------------------------------




--------------------------------------- Iteration      1(  10)  ---------------------------------------


    POTLOK:  cpu time    0.0802: real time    0.0848
    SETDIJ:  cpu time    0.4079: real time    0.4079
     EDDAV:  cpu time    7.6168: real time    7.6663
       DOS:  cpu time    0.0017: real time    0.0017
    CHARGE:  cpu time    0.4897: real time    0.5102
    MIXING:  cpu time    0.0273: real time    0.0273
    --------------------------------------------
      LOOP:  cpu time    8.6237: real time    8.6983

 eigenvalue-minimisations  :  5056
 total energy-change (2. order) : 0.1783161E+00  (-0.2667613E+00)
 number of electron     287.9999861 magnetization 
 augmentation part       30.5345729 magnetization 

 Broyden mixing:
  rms(total) = 0.34278E+00    rms(broyden)= 0.34277E+00
  rms(prec ) = 0.34308E+00
  weight for this iteration     100.00

 eigenvalues of (default mixing * dielectric matrix)
  average eigenvalue GAMMA=   1.2440
  1.9748  1.9748  0.8495  0.8495  0.5715

 Free energy of the ion-electron system (eV)
  ---------------------------------------------------
  alpha Z        PSCENC =       672.39487585
  Ewald energy   TEWEN  =    987064.54898173
  -Hartree energ DENC   =  -1005517.85032449
  -exchange      EXHF   =         0.00000000
  -V(xc)+E(xc)   XCENC  =       738.62658411
  PAW double counting   =     33809.01716539   -33409.25350956
  entropy T*S    EENTRO =        -0.00000000
  eigenvalues    EBANDS =     -3692.36921366
  atomic energy  EATOM  =     19947.02745206
  Solvation  Ediel_sol  =         0.00000000
  ---------------------------------------------------
  free energy    TOTEN  =      -387.85798856 eV

  energy without entropy =     -387.85798856  energy(sigma->0) =     -387.85798856


--------------------------------------------------------------------------------------------------------




--------------------------------------- Iteration      1(  11)  ---------------------------------------


    POTLOK:  cpu time    0.1717: real time    0.1718
    SETDIJ:  cpu time    0.3357: real time    0.4082
     EDDAV:  cpu time    8.3362: real time    8.4214
       DOS:  cpu time    0.0023: real time    0.0027
    CHARGE:  cpu time    0.3695: real time    0.3715
    MIXING:  cpu time    0.0072: real time    0.0073
    --------------------------------------------
      LOOP:  cpu time    9.2225: real time    9.3829

 eigenvalue-minimisations  :  5024
 total energy-change (2. order) : 0.1216846E-01  (-0.3081422E-01)
 number of electron     287.9999861 magnetization 
 augmentation part       30.4088156 magnetization 

 Broyden mixing:
  rms(total) = 0.10011E+00    rms(broyden)= 0.10011E+00
  rms(prec ) = 0.10050E+00
  weight for this iteration     100.00

 eigenvalues of (default mixing * dielectric matrix)
  average eigenvalue GAMMA=   1.2791
  2.0295  2.0295  1.1267  1.1267  0.7886  0.5738

 Free energy of the ion-electron system (eV)
  ---------------------------------------------------
  alpha Z        PSCENC =       672.39487585
  Ewald energy   TEWEN  =    987064.54898173
  -Hartree energ DENC   =  -1005532.66225349
  -exchange      EXHF   =         0.00000000
  -V(xc)+E(xc)   XCENC  =       738.64577197
  PAW double counting   =     33339.68286971   -32937.66623942
  entropy T*S    EENTRO =        -0.00000000
  eigenvalues    EBANDS =     -3679.81727853
  atomic energy  EATOM  =     19947.02745206
  Solvation  Ediel_sol  =         0.00000000
  ---------------------------------------------------
  free energy    TOTEN  =      -387.84582010 eV

  energy without entropy =     -387.84582010  energy(sigma->0) =     -387.84582010


--------------------------------------------------------------------------------------------------------




--------------------------------------- Iteration      1(  12)  ---------------------------------------


    POTLOK:  cpu time    0.1153: real time    0.1177
    SETDIJ:  cpu time    0.3983: real time    0.3983
     EDDAV:  cpu time    8.5248: real time    8.5269
       DOS:  cpu time    0.0016: real time    0.0018
    CHARGE:  cpu time    0.3083: real time    0.3097
    MIXING:  cpu time    0.0228: real time    0.0228
    --------------------------------------------
      LOOP:  cpu time    9.3711: real time    9.3773

 eigenvalue-minimisations  :  4464
 total energy-change (2. order) : 0.1745059E-02  (-0.1149606E-01)
 number of electron     287.9999861 magnetization 
 augmentation part       30.4282603 magnetization 

 Broyden mixing:
  rms(total) = 0.52312E-01    rms(broyden)= 0.52299E-01
  rms(prec ) = 0.52651E-01
  weight for this iteration     100.00

 eigenvalues of (default mixing * dielectric matrix)
  average eigenvalue GAMMA=   1.3063
  2.1905  2.1905  1.6326  0.8982  0.8982  0.5726  0.7618

 Free energy of the ion-electron system (eV)
  ---------------------------------------------------
  alpha Z        PSCENC =       672.39487585
  Ewald energy   TEWEN  =    987064.54898173
  -Hartree energ DENC   =  -1005550.90194658
  -exchange      EXHF   =         0.00000000
  -V(xc)+E(xc)   XCENC  =       738.55845021
  PAW double counting   =     33421.63227831   -33017.44640829
  entropy T*S    EENTRO =        -0.00000000
  eigenvalues    EBANDS =     -3663.65775835
  atomic energy  EATOM  =     19947.02745206
  Solvation  Ediel_sol  =         0.00000000
  ---------------------------------------------------
  free energy    TOTEN  =      -387.84407505 eV

  energy without entropy =     -387.84407505  energy(sigma->0) =     -387.84407505


--------------------------------------------------------------------------------------------------------




--------------------------------------- Iteration      1(  13)  ---------------------------------------


    POTLOK:  cpu time    0.1374: real time    0.1409
    SETDIJ:  cpu time    0.3775: real time    0.3776
     EDDAV:  cpu time    8.6000: real time    8.6023
       DOS:  cpu time    0.0022: real time    0.0027
    CHARGE:  cpu time    0.3625: real time    0.3624
    MIXING:  cpu time    0.0070: real time    0.0070
    --------------------------------------------
      LOOP:  cpu time    9.4867: real time    9.4929

 eigenvalue-minimisations  :  5072
 total energy-change (2. order) : 0.1445643E-02  (-0.3404058E-02)
 number of electron     287.9999861 magnetization 
 augmentation part       30.4893780 magnetization 

 Broyden mixing:
  rms(total) = 0.39470E-01    rms(broyden)= 0.39467E-01
  rms(prec ) = 0.39756E-01
  weight for this iteration     100.00

 eigenvalues of (default mixing * dielectric matrix)
  average eigenvalue GAMMA=   1.2501
  2.3317  2.3317  1.4890  0.8965  0.8965  0.5811  0.7370  0.7370

 Free energy of the ion-electron system (eV)
  ---------------------------------------------------
  alpha Z        PSCENC =       672.39487585
  Ewald energy   TEWEN  =    987064.54898173
  -Hartree energ DENC   =  -1005570.96130296
  -exchange      EXHF   =         0.00000000
  -V(xc)+E(xc)   XCENC  =       738.86138595
  PAW double counting   =     33441.30370634   -33035.89973187
  entropy T*S    EENTRO =        -0.00000000
  eigenvalues    EBANDS =     -3645.11799651
  atomic energy  EATOM  =     19947.02745206
  Solvation  Ediel_sol  =         0.00000000
  ---------------------------------------------------
  free energy    TOTEN  =      -387.84262940 eV

  energy without entropy =     -387.84262940  energy(sigma->0) =     -387.84262940


--------------------------------------------------------------------------------------------------------




--------------------------------------- Iteration      1(  14)  ---------------------------------------


    POTLOK:  cpu time    0.1085: real time    0.1131
    SETDIJ:  cpu time    0.4113: real time    0.4113
     EDDAV:  cpu time    8.3984: real time    8.4014
       DOS:  cpu time    0.0022: real time    0.0029
    CHARGE:  cpu time    0.3124: real time    0.3125
    MIXING:  cpu time    0.0053: real time    0.0053
    --------------------------------------------
      LOOP:  cpu time    9.2380: real time    9.2466

 eigenvalue-minimisations  :  4944
 total energy-change (2. order) : 0.1160772E-02  (-0.6397102E-03)
 number of electron     287.9999861 magnetization 
 augmentation part       30.4716894 magnetization 

 Broyden mixing:
  rms(total) = 0.17200E-01    rms(broyden)= 0.17199E-01
  rms(prec ) = 0.17573E-01
  weight for this iteration     100.00

 eigenvalues of (default mixing * dielectric matrix)
  average eigenvalue GAMMA=   1.2475
  2.3839  1.9557  1.9557  0.9408  0.9408  0.9677  0.8659  0.5772  0.6395

 Free energy of the ion-electron system (eV)
  ---------------------------------------------------
  alpha Z        PSCENC =       672.39487585
  Ewald energy   TEWEN  =    987064.54898173
  -Hartree energ DENC   =  -1005578.28800827
  -exchange      EXHF   =         0.00000000
  -V(xc)+E(xc)   XCENC  =       738.84510617
  PAW double counting   =     33444.51126265   -33038.87963385
  entropy T*S    EENTRO =        -0.00000000
  eigenvalues    EBANDS =     -3638.00150498
  atomic energy  EATOM  =     19947.02745206
  Solvation  Ediel_sol  =         0.00000000
  ---------------------------------------------------
  free energy    TOTEN  =      -387.84146863 eV

  energy without entropy =     -387.84146863  energy(sigma->0) =     -387.84146863


--------------------------------------------------------------------------------------------------------




--------------------------------------- Iteration      1(  15)  ---------------------------------------


    POTLOK:  cpu time    0.1202: real time    0.1242
    SETDIJ:  cpu time    0.3918: real time    0.3918
     EDDAV:  cpu time    7.2647: real time    7.5622
       DOS:  cpu time    0.0011: real time    0.0015
    CHARGE:  cpu time    0.2784: real time    0.2785
    MIXING:  cpu time    0.0260: real time    0.0270
    --------------------------------------------
      LOOP:  cpu time    8.0823: real time    8.3853

 eigenvalue-minimisations  :  4944
 total energy-change (2. order) : 0.3295980E-03  (-0.2420235E-03)
 number of electron     287.9999861 magnetization 
 augmentation part       30.4590990 magnetization 

 Broyden mixing:
  rms(total) = 0.14479E-01    rms(broyden)= 0.14478E-01
  rms(prec ) = 0.14797E-01
  weight for this iteration     100.00

 eigenvalues of (default mixing * dielectric matrix)
  average eigenvalue GAMMA=   1.2557
  2.3252  2.1898  2.1898  1.0925  1.0925  0.8356  0.8356  0.8093  0.5776  0.6091

 Free energy of the ion-electron system (eV)
  ---------------------------------------------------
  alpha Z        PSCENC =       672.39487585
  Ewald energy   TEWEN  =    987064.54898173
  -Hartree energ DENC   =  -1005585.33991717
  -exchange      EXHF   =         0.00000000
  -V(xc)+E(xc)   XCENC  =       738.80447489
  PAW double counting   =     33465.86386229   -33060.31385546
  entropy T*S    EENTRO =        -0.00000000
  eigenvalues    EBANDS =     -3630.82701323
  atomic energy  EATOM  =     19947.02745206
  Solvation  Ediel_sol  =         0.00000000
  ---------------------------------------------------
  free energy    TOTEN  =      -387.84113903 eV

  energy without entropy =     -387.84113903  energy(sigma->0) =     -387.84113903


--------------------------------------------------------------------------------------------------------




--------------------------------------- Iteration      1(  16)  ---------------------------------------


    POTLOK:  cpu time    0.1459: real time    0.1473
    SETDIJ:  cpu time    0.4253: real time    0.4254
     EDDAV:  cpu time    8.2349: real time    9.4499
       DOS:  cpu time    0.0011: real time    0.0015
    CHARGE:  cpu time    0.4559: real time    0.4561
    MIXING:  cpu time    0.0131: real time    0.0131
    --------------------------------------------
      LOOP:  cpu time    9.2763: real time   10.4933

 eigenvalue-minimisations  :  4816
 total energy-change (2. order) : 0.2556310E-03  (-0.7766871E-04)
 number of electron     287.9999861 magnetization 
 augmentation part       30.4635913 magnetization 

 Broyden mixing:
  rms(total) = 0.58473E-02    rms(broyden)= 0.58469E-02
  rms(prec ) = 0.64238E-02
  weight for this iteration     100.00

 eigenvalues of (default mixing * dielectric matrix)
  average eigenvalue GAMMA=   1.3185
  2.8080  2.3726  1.7378  1.7378  1.0997  1.0997  0.8251  0.8251  0.8355  0.5760
  0.5861

 Free energy of the ion-electron system (eV)
  ---------------------------------------------------
  alpha Z        PSCENC =       672.39487585
  Ewald energy   TEWEN  =    987064.54898173
  -Hartree energ DENC   =  -1005592.81295627
  -exchange      EXHF   =         0.00000000
  -V(xc)+E(xc)   XCENC  =       738.83941518
  PAW double counting   =     33462.69743299   -33057.15370498
  entropy T*S    EENTRO =        -0.00000000
  eigenvalues    EBANDS =     -3623.38237997
  atomic energy  EATOM  =     19947.02745206
  Solvation  Ediel_sol  =         0.00000000
  ---------------------------------------------------
  free energy    TOTEN  =      -387.84088340 eV

  energy without entropy =     -387.84088340  energy(sigma->0) =     -387.84088340


--------------------------------------------------------------------------------------------------------




--------------------------------------- Iteration      1(  17)  ---------------------------------------


    POTLOK:  cpu time    0.1013: real time    0.1603
    SETDIJ:  cpu time    0.3822: real time    0.3876
     EDDAV:  cpu time    8.4576: real time    8.7800
       DOS:  cpu time    0.0010: real time    0.0014
    CHARGE:  cpu time    0.3135: real time    0.3135
    MIXING:  cpu time    0.0050: real time    0.0050
    --------------------------------------------
      LOOP:  cpu time    9.2606: real time    9.6477

 eigenvalue-minimisations  :  4272
 total energy-change (2. order) : 0.2997791E-03  (-0.4610943E-04)
 number of electron     287.9999861 magnetization 
 augmentation part       30.4640594 magnetization 

 Broyden mixing:
  rms(total) = 0.37497E-02    rms(broyden)= 0.37496E-02
  rms(prec ) = 0.43204E-02
  weight for this iteration     100.00

 eigenvalues of (default mixing * dielectric matrix)
  average eigenvalue GAMMA=   1.3257
  2.6219  2.2098  2.2098  2.1144  1.1340  1.1340  0.8390  0.8390  0.8239  0.8239
  0.5794  0.5794

 Free energy of the ion-electron system (eV)
  ---------------------------------------------------
  alpha Z        PSCENC =       672.39487585
  Ewald energy   TEWEN  =    987064.54898173
  -Hartree energ DENC   =  -1005604.71623215
  -exchange      EXHF   =         0.00000000
  -V(xc)+E(xc)   XCENC  =       738.86898447
  PAW double counting   =     33460.62341203   -33054.98393476
  entropy T*S    EENTRO =        -0.00000000
  eigenvalues    EBANDS =     -3611.60412288
  atomic energy  EATOM  =     19947.02745206
  Solvation  Ediel_sol  =         0.00000000
  ---------------------------------------------------
  free energy    TOTEN  =      -387.84058362 eV

  energy without entropy =     -387.84058362  energy(sigma->0) =     -387.84058362


--------------------------------------------------------------------------------------------------------




--------------------------------------- Iteration      1(  18)  ---------------------------------------


    POTLOK:  cpu time    0.1031: real time    0.1068
    SETDIJ:  cpu time    0.4096: real time    0.4096
     EDDAV:  cpu time    6.2901: real time    6.2920
       DOS:  cpu time    0.0011: real time    0.0014
    CHARGE:  cpu time    0.3461: real time    0.3461
    MIXING:  cpu time    0.0072: real time    0.0072
    --------------------------------------------
      LOOP:  cpu time    7.1573: real time    7.1631

 eigenvalue-minimisations  :  4704
 total energy-change (2. order) : 0.5811693E-04  (-0.3002868E-04)
 number of electron     287.9999861 magnetization 
 augmentation part       30.4595058 magnetization 

 Broyden mixing:
  rms(total) = 0.42516E-02    rms(broyden)= 0.42515E-02
  rms(prec ) = 0.46217E-02
  weight for this iteration     100.00

 eigenvalues of (default mixing * dielectric matrix)
  average eigenvalue GAMMA=   1.3447
  3.1045  2.3661  2.3661  1.9503  1.1937  1.1937  0.9290  0.9290  0.7942  0.7472
  0.7472  0.5803  0.5803

 Free energy of the ion-electron system (eV)
  ---------------------------------------------------
  alpha Z        PSCENC =       672.39487585
  Ewald energy   TEWEN  =    987064.54898173
  -Hartree energ DENC   =  -1005611.27957219
  -exchange      EXHF   =         0.00000000
  -V(xc)+E(xc)   XCENC  =       738.85968996
  PAW double counting   =     33460.96032218   -33055.42370780
  entropy T*S    EENTRO =        -0.00000000
  eigenvalues    EBANDS =     -3604.92856731
  atomic energy  EATOM  =     19947.02745206
  Solvation  Ediel_sol  =         0.00000000
  ---------------------------------------------------
  free energy    TOTEN  =      -387.84052550 eV

  energy without entropy =     -387.84052550  energy(sigma->0) =     -387.84052550


--------------------------------------------------------------------------------------------------------




--------------------------------------- Iteration      1(  19)  ---------------------------------------


    POTLOK:  cpu time    0.0937: real time    0.0972
    SETDIJ:  cpu time    0.4304: real time    0.4305
     EDDAV:  cpu time    6.9955: real time    7.1505
       DOS:  cpu time    0.0048: real time    0.0052
    CHARGE:  cpu time    0.3348: real time    0.3348
    MIXING:  cpu time    0.0056: real time    0.0056
    --------------------------------------------
      LOOP:  cpu time    7.8648: real time    8.0239

 eigenvalue-minimisations  :  4368
 total energy-change (2. order) : 0.2140782E-04  (-0.2119997E-04)
 number of electron     287.9999861 magnetization 
 augmentation part       30.4593926 magnetization 

 Broyden mixing:
  rms(total) = 0.32089E-02    rms(broyden)= 0.32089E-02
  rms(prec ) = 0.35102E-02
  weight for this iteration     100.00

[...]
 -0.000   0.000  -0.022   0.000   0.000   0.021   0.000   0.000   0.000  -0.189   0.000   0.000   0.000   0.000   0.115  -0.000
 -0.002   0.013  -0.000   0.182   0.000  -0.000  -0.181   0.000   0.000   0.000   0.167   0.000   0.000   0.000   0.000  -0.092
  0.000   0.000   0.000   0.000  -0.022   0.000   0.000   0.021   0.000   0.000   0.000  -0.189   0.000  -0.000   0.000   0.000
  0.000   0.000  -0.000   0.000   0.000  -0.000   0.000   0.000   0.000   0.000   0.000   0.000  -0.312   0.000   0.000   0.000
  0.000  -0.000   0.000   0.000   0.110   0.000   0.000  -0.113   0.000   0.000   0.000  -0.176   0.000  -0.000   0.000  -0.000


------------------------ aborting loop because EDIFF is reached ----------------------------------------


 


 total charge     
 
# of ion       s       p       d       f       tot
--------------------------------------------------
    1        2.160   6.402   0.964   0.105   9.631
    2        2.159   6.376   0.919   0.100   9.554
    3        2.160   6.402   0.964   0.105   9.631
    4        2.160   6.402   0.964   0.105   9.631
    5        2.159   6.376   0.919   0.100   9.554
    6        2.160   6.402   0.964   0.105   9.631
    7        2.160   6.402   0.964   0.105   9.631
    8        2.160   6.402   0.964   0.105   9.631
    9        0.578   1.041   2.739   0.000   4.358
   10        0.577   1.035   2.742   0.000   4.354
   11        0.577   1.034   2.742   0.000   4.354
   12        0.578   1.035   2.742   0.000   4.354
   13        0.577   1.035   2.742   0.000   4.354
   14        0.578   1.041   2.739   0.000   4.358
   15        0.578   1.035   2.742   0.000   4.354
   16        0.577   1.034   2.742   0.000   4.354
   17        1.317   2.439   0.000   0.000   3.756
   18        1.318   2.461   0.000   0.000   3.779
   19        1.318   2.461   0.000   0.000   3.779
   20        1.318   2.461   0.000   0.000   3.779
   21        1.318   2.461   0.000   0.000   3.779
   22        1.317   2.439   0.000   0.000   3.756
   23        1.318   2.461   0.000   0.000   3.779
   24        1.318   2.461   0.000   0.000   3.779
   25        1.575   3.429   0.000   0.000   5.004
   26        1.575   3.410   0.000   0.000   4.984
   27        1.552   3.536   0.000   0.000   5.087
   28        1.552   3.537   0.000   0.000   5.088
   29        1.575   3.410   0.000   0.000   4.985
   30        1.576   3.430   0.000   0.000   5.005
   31        1.575   3.410   0.000   0.000   4.985
   32        1.552   3.536   0.000   0.000   5.087
   33        1.552   3.536   0.000   0.000   5.087
   34        1.575   3.410   0.000   0.000   4.985
   35        1.576   3.430   0.000   0.000   5.005
   36        1.575   3.410   0.000   0.000   4.985
   37        1.552   3.537   0.000   0.000   5.088
   38        1.552   3.536   0.000   0.000   5.087
   39        1.575   3.410   0.000   0.000   4.984
   40        1.575   3.429   0.000   0.000   5.004
   41        1.575   3.410   0.000   0.000   4.985
   42        1.552   3.536   0.000   0.000   5.087
   43        1.552   3.536   0.000   0.000   5.087
   44        1.575   3.410   0.000   0.000   4.985
--------------------------------------------------
tot         63.755 148.385  29.549   0.830 242.519

 
    CHARGE:  cpu time    0.2867: real time    0.2867
    FORLOC:  cpu time    0.0093: real time    0.0093
    FORNL :  cpu time    0.6157: real time    0.6160
    STRESS:  cpu time    1.8982: real time    1.8987
    FORCOR:  cpu time    0.0840: real time    0.0840
    FORHAR:  cpu time    0.0260: real time    0.0260
    MIXING:  cpu time    0.0288: real time    0.0288
    OFIELD:  cpu time    0.0000: real time    0.0000

  FORCE on cell =-STRESS in cart. coord.  units (eV):
  Direction    XX          YY          ZZ          XY          YZ          ZX
  --------------------------------------------------------------------------------------
  Alpha Z   672.39488   672.39488   672.39488
  Ewald  998344.34347998344.34347************     0.00000    -0.00000     0.00000
  Hartree************************************    -0.00000    -0.00000    -0.00000
  E(xc)   -1239.49200 -1239.49200 -1241.02443     0.00000     0.00000     0.00000
  Local  ************************************     0.00000     0.00000     0.00000
  n-local  -314.95588  -324.45803  -322.30453   -10.79167    -0.00000     0.00000
  augment   153.41936   153.41936   154.28153     0.00000     0.00000     0.00000
  Kinetic  4504.78900  4614.80358  4564.68710    -2.62738    -0.00000     0.00000
  Fock        0.00000     0.00000     0.00000     0.00000     0.00000     0.00000
  -------------------------------------------------------------------------------------
  Total      -3.22945    -3.22945     0.28576     0.00000     0.00000    -0.00000
  in kB      -4.00865    -4.00865     0.35471     0.00000     0.00000    -0.00000
  external pressure =       -2.55 kB  Pullay stress =        0.00 kB


 VOLUME and BASIS-vectors are now :
 -----------------------------------------------------------------------------
  energy-cutoff  :      520.00
  volume of cell :     1290.75
      direct lattice vectors                 reciprocal lattice vectors
     3.770023000  0.000000000  0.000000000     0.265250371  0.000000000  0.000000000
     0.000000000  3.770023000  0.000000000     0.000000000  0.265250371  0.000000000
     0.000000000  0.000000000 90.814054000     0.000000000  0.000000000  0.011011512

  length of vectors
     3.770023000  3.770023000 90.814054000     0.265250371  0.265250371  0.011011512


 FORCES acting on ions
    electron-ion (+dipol)            ewald-force                    non-local-force                 convergence-correction
 -----------------------------------------------------------------------------------------------
   0.918E-13 0.588E-12 0.704E+03   0.131E-13 0.212E-13 -.705E+03   -.310E-24 0.000E+00 0.432E+00   0.701E-14 -.285E-13 0.274E-04
   0.283E-14 -.911E-12 0.939E+04   0.113E-13 0.204E-13 -.939E+04   0.181E-24 0.000E+00 -.253E+01   0.256E-13 -.294E-13 0.241E-03
   0.533E-14 -.161E-11 0.575E+04   0.113E-13 0.213E-13 -.575E+04   0.000E+00 0.517E-25 0.429E+00   -.126E-13 -.574E-13 -.791E-04
   0.934E-13 0.230E-12 0.434E+04   0.829E-14 0.162E-13 -.434E+04   0.207E-24 0.000E+00 -.432E+00   0.144E-13 -.233E-13 0.194E-05
   0.916E-13 0.874E-12 -.939E+04   0.113E-13 0.204E-13 0.939E+04   -.155E-24 -.775E-25 0.253E+01   -.252E-13 0.182E-13 -.241E-03
   -.527E-14 -.306E-12 -.704E+03   0.983E-14 0.162E-13 0.705E+03   -.207E-24 0.000E+00 -.432E+00   -.134E-13 0.204E-13 -.274E-04
   0.120E-14 0.186E-13 -.434E+04   0.113E-13 0.213E-13 0.434E+04   -.207E-24 0.000E+00 0.432E+00   -.125E-13 0.395E-13 -.194E-05
   0.125E-12 0.176E-11 -.575E+04   0.813E-14 0.163E-13 0.575E+04   0.103E-24 -.103E-24 -.429E+00   0.368E-14 0.651E-13 0.791E-04
   0.908E-14 -.109E-12 0.295E+04   0.558E-14 0.233E-14 -.295E+04   0.103E-24 0.000E+00 0.383E-01   -.589E-14 0.146E-13 0.494E-04
   -.296E-14 -.881E-13 0.718E+03   0.706E-14 0.184E-14 -.718E+03   0.000E+00 0.129E-25 -.411E-01   0.534E-15 -.899E-15 0.126E-04
   -.213E-14 -.316E-13 0.112E+04   0.692E-14 0.229E-14 -.112E+04   0.000E+00 -.517E-25 0.290E-01   -.688E-14 0.174E-13 0.158E-04
   -.232E-14 -.994E-13 0.255E+04   0.671E-14 0.236E-14 -.255E+04   -.582E-25 0.000E+00 -.314E-01   0.476E-14 0.530E-15 -.347E-04
   0.588E-14 0.302E-12 -.718E+03   0.688E-14 0.186E-14 0.718E+03   0.000E+00 0.000E+00 0.411E-01   0.965E-15 0.394E-14 -.126E-04
   0.561E-15 0.164E-12 -.295E+04   0.558E-14 0.233E-14 0.295E+04   -.103E-24 0.000E+00 -.383E-01   0.596E-14 -.145E-13 -.494E-04
   -.886E-14 0.782E-13 -.255E+04   0.686E-14 0.234E-14 0.255E+04   0.000E+00 -.517E-25 0.314E-01   -.500E-14 -.109E-14 0.347E-04
   0.653E-14 0.147E-12 -.112E+04   0.675E-14 0.231E-14 0.112E+04   0.000E+00 0.517E-25 -.290E-01   0.674E-14 -.169E-13 -.158E-04
   -.198E-13 -.536E-12 0.532E+04   -.188E-14 0.598E-14 -.532E+04   0.000E+00 0.000E+00 0.468E+00   0.136E-13 0.397E-14 0.113E-03
   -.126E-13 -.153E-11 0.168E+03   0.418E-14 0.103E-13 -.167E+03   -.517E-25 0.103E-24 -.445E+00   -.138E-13 -.181E-13 0.188E-04
   0.260E-14 0.167E-12 0.258E+04   0.435E-14 0.103E-13 -.258E+04   0.000E+00 -.129E-25 0.445E+00   0.115E-13 0.664E-14 -.115E-04
   -.613E-15 -.573E-12 0.292E+04   -.328E-14 0.596E-14 -.292E+04   -.194E-25 0.000E+00 -.438E+00   -.768E-14 -.140E-14 -.192E-04
   -.232E-13 0.156E-11 -.168E+03   -.349E-14 0.593E-14 0.167E+03   0.517E-25 -.517E-25 0.445E+00   0.170E-13 0.201E-13 -.188E-04
   -.571E-14 0.498E-12 -.532E+04   -.188E-14 0.598E-14 0.532E+04   -.207E-24 0.000E+00 -.468E+00   -.142E-13 -.174E-14 -.113E-03
   -.296E-14 0.231E-12 -.292E+04   0.431E-14 0.103E-13 0.292E+04   0.388E-25 0.000E+00 0.438E+00   0.125E-13 -.138E-14 0.192E-04
   -.164E-13 -.169E-12 -.258E+04   -.332E-14 0.596E-14 0.258E+04   0.000E+00 0.258E-25 -.445E+00   -.811E-14 -.117E-13 0.115E-04
   -.591E-14 0.286E-12 0.137E+04   0.210E-13 0.476E-14 -.137E+04   -.414E-24 -.258E-25 -.537E-02   -.216E-13 -.174E-13 0.288E-04
   -.622E-14 -.103E-11 0.451E+04   0.604E-14 -.107E-13 -.451E+04   0.827E-24 0.000E+00 -.159E+01   -.368E-14 -.409E-14 0.107E-03
   -.503E-14 -.347E-12 0.985E+03   0.451E-14 -.256E-14 -.987E+03   0.000E+00 -.103E-24 0.150E+01   -.283E-13 -.124E-13 0.321E-04
   0.146E-12 -.103E-11 0.451E+04   -.145E-13 0.148E-14 -.451E+04   -.165E-23 0.000E+00 -.159E+01   0.721E-14 -.499E-13 0.107E-03
   0.129E-12 0.407E-12 0.985E+03   -.386E-13 -.820E-14 -.987E+03   0.000E+00 -.258E-25 0.150E+01   0.128E-13 -.733E-14 0.321E-04
   0.134E-12 -.372E-14 0.412E+04   -.127E-14 0.288E-14 -.412E+04   -.388E-25 0.000E+00 0.153E+00   -.116E-13 0.383E-14 0.498E-04
   0.133E-12 -.265E-11 0.176E+04   -.203E-13 -.110E-13 -.176E+04   0.000E+00 0.000E+00 -.149E+01   0.328E-14 -.409E-14 0.216E-04
   0.148E-12 0.173E-11 0.374E+04   0.187E-14 -.218E-14 -.374E+04   0.000E+00 0.000E+00 0.149E+01   -.228E-13 -.691E-15 -.635E-04
   -.124E-13 0.814E-12 0.176E+04   -.194E-13 0.694E-15 -.176E+04   0.000E+00 0.000E+00 -.149E+01   0.159E-13 -.609E-13 0.216E-04
   0.105E-14 0.179E-11 0.374E+04   -.419E-13 -.816E-14 -.374E+04   0.103E-24 -.517E-25 0.149E+01   -.434E-14 0.136E-13 -.635E-04
   -.144E-14 0.742E-14 -.412E+04   0.208E-13 0.425E-14 0.412E+04   0.000E+00 0.000E+00 -.153E+00   0.706E-15 -.269E-14 -.498E-04
   -.192E-14 -.453E-13 -.985E+03   0.340E-14 -.121E-13 0.987E+03   0.258E-25 0.517E-25 -.150E+01   -.147E-13 0.755E-14 -.321E-04
   -.120E-13 0.170E-11 -.451E+04   0.642E-14 -.365E-14 0.451E+04   0.165E-23 0.207E-24 0.159E+01   -.326E-14 0.471E-13 -.107E-03
   0.138E-12 0.980E-12 -.985E+03   -.174E-13 0.247E-14 0.987E+03   0.000E+00 0.103E-24 -.150E+01   0.336E-13 0.225E-14 -.321E-04
   0.132E-12 0.127E-11 -.451E+04   -.369E-13 -.691E-14 0.451E+04   -.827E-24 0.000E+00 0.159E+01   0.300E-15 0.636E-14 -.107E-03
   0.161E-12 -.498E-12 -.137E+04   -.144E-14 0.329E-14 0.137E+04   0.414E-24 0.000E+00 0.537E-02   0.108E-13 0.162E-13 -.288E-04
   0.126E-12 -.147E-11 -.374E+04   -.204E-13 -.111E-13 0.374E+04   0.155E-24 0.517E-25 -.149E+01   0.999E-14 -.205E-13 0.635E-04
   0.140E-12 -.754E-12 -.176E+04   0.234E-14 -.228E-14 0.176E+04   0.000E+00 0.000E+00 0.149E+01   -.140E-13 0.587E-13 -.216E-04
   -.109E-13 -.158E-11 -.374E+04   -.199E-13 0.800E-15 0.374E+04   -.129E-25 0.000E+00 -.149E+01   0.288E-13 0.225E-14 0.635E-04
   0.649E-14 0.204E-11 -.176E+04   -.418E-13 -.807E-14 0.176E+04   0.258E-25 -.129E-25 0.149E+01   0.747E-15 0.548E-14 -.216E-04
 -----------------------------------------------------------------------------------------------
   0.167E-11 0.227E-11 0.530E-10   -.715E-13 0.166E-12 0.455E-12   -.375E-24 0.905E-25 0.244E-14   -.114E-14 -.126E-13 0.130E-10
 
 
 POSITION                                       TOTAL-FORCE (eV/Angst)
 -----------------------------------------------------------------------------------
      1.88501      1.88501     43.52781        -0.000000     -0.000000      0.000013
      0.00000      0.00000     24.58273        -0.000000      0.000000      0.558993
      0.00000      0.00000     32.17606        -0.000000     -0.000000      0.004587
      1.88501      1.88501     35.93449        -0.000000     -0.000000     -0.000609
      1.88501      1.88501     66.23133        -0.000000     -0.000000     -0.558993
      0.00000      0.00000     47.28624        -0.000000      0.000000     -0.000013
      0.00000      0.00000     54.87957        -0.000000     -0.000000      0.000609
      1.88501      1.88501     58.63800        -0.000000      0.000000     -0.004587
      1.88501      1.88501     26.56057        -0.000000     -0.000000     -0.231095
      0.00000      0.00000     41.54997        -0.000000      0.000000     -0.006857
      0.00000      0.00000     37.91232        -0.000000      0.000000     -0.005142
      1.88501      1.88501     30.19822        -0.000000     -0.000000      0.008073
      1.88501      1.88501     49.26408        -0.000000     -0.000000      0.006857
      0.00000      0.00000     64.25349        -0.000000     -0.000000      0.231095
      0.00000      0.00000     60.61584        -0.000000     -0.000000     -0.008073
      1.88501      1.88501     52.90173        -0.000000     -0.000000      0.005142
      1.88501      1.88501     23.70719        -0.000000      0.000000     -0.390243
      0.00000      0.00000     44.40335        -0.000000     -0.000000     -0.003262
      0.00000      0.00000     35.05895        -0.000000      0.000000      0.003628
      1.88501      1.88501     33.05159        -0.000000      0.000000      0.003069
      1.88501      1.88501     46.41070        -0.000000      0.000000      0.003262
      0.00000      0.00000     67.10686        -0.000000     -0.000000      0.390243
      0.00000      0.00000     57.76246        -0.000000     -0.000000     -0.003069
      1.88501      1.88501     55.75511        -0.000000     -0.000000     -0.003628
      0.00000      0.00000     39.73115        -0.000000     -0.000000     -0.005624
      0.00000      1.88501     26.08352        -0.000000     -0.000000     -0.013478
      0.00000      1.88501     42.02702         0.000000     -0.000000     -0.000356
      1.88501      0.00000     26.08352        -0.000000     -0.000000     -0.013478
      1.88501      0.00000     42.02702        -0.000000     -0.000000     -0.000356
      1.88501      1.88501     28.37939        -0.000000     -0.000000      0.047866
      1.88501      0.00000     37.43528        -0.000000     -0.000000      0.008204
      1.88501      0.00000     30.67526        -0.000000      0.000000      0.002762
      0.00000      1.88501     37.43528        -0.000000     -0.000000      0.008204
      0.00000      1.88501     30.67526        -0.000000      0.000000      0.002762
      0.00000      0.00000     62.43466         0.000000     -0.000000     -0.047866
      0.00000      1.88501     48.78704        -0.000000      0.000000      0.000356
      0.00000      1.88501     64.73053        -0.000000      0.000000      0.013478
      1.88501      0.00000     48.78704        -0.000000     -0.000000      0.000356
      1.88501      0.00000     64.73053        -0.000000      0.000000      0.013478
      1.88501      1.88501     51.08291        -0.000000     -0.000000      0.005624
      1.88501      0.00000     60.13879        -0.000000      0.000000     -0.002762
      1.88501      0.00000     53.37878        -0.000000      0.000000     -0.008204
      0.00000      1.88501     60.13879        -0.000000     -0.000000     -0.002762
      0.00000      1.88501     53.37878        -0.000000      0.000000     -0.008204
 -----------------------------------------------------------------------------------
    total drift:                                0.000000      0.000000      0.000000


--------------------------------------------------------------------------------------------------------



  FREE ENERGIE OF THE ION-ELECTRON SYSTEM (eV)
  ---------------------------------------------------
  free  energy   TOTEN  =      -387.84194439 eV

  energy  without entropy=     -387.84194439  energy(sigma->0) =     -387.84194439
 


--------------------------------------------------------------------------------------------------------


    POTLOK:  cpu time    0.5312: real time    0.5312


--------------------------------------------------------------------------------------------------------


     LOOP+:  cpu time  296.4506: real time  304.9686
    4ORBIT:  cpu time    0.0000: real time    0.0000
 


 total charge     
 
# of ion       s       p       d       f       tot
--------------------------------------------------
    1        2.160   6.402   0.964   0.105   9.631
    2        2.159   6.376   0.919   0.100   9.554
    3        2.160   6.402   0.964   0.105   9.631
    4        2.160   6.402   0.964   0.105   9.631
    5        2.159   6.376   0.919   0.100   9.554
    6        2.160   6.402   0.964   0.105   9.631
    7        2.160   6.402   0.964   0.105   9.631
    8        2.160   6.402   0.964   0.105   9.631
    9        0.578   1.041   2.739   0.000   4.358
   10        0.577   1.035   2.742   0.000   4.354
   11        0.577   1.034   2.742   0.000   4.354
   12        0.578   1.035   2.742   0.000   4.354
   13        0.577   1.035   2.742   0.000   4.354
   14        0.578   1.041   2.739   0.000   4.358
   15        0.578   1.035   2.742   0.000   4.354
   16        0.577   1.034   2.742   0.000   4.354
   17        1.317   2.439   0.000   0.000   3.756
   18        1.318   2.461   0.000   0.000   3.779
   19        1.318   2.461   0.000   0.000   3.779
   20        1.318   2.461   0.000   0.000   3.779
   21        1.318   2.461   0.000   0.000   3.779
   22        1.317   2.439   0.000   0.000   3.756
   23        1.318   2.461   0.000   0.000   3.779
   24        1.318   2.461   0.000   0.000   3.779
   25        1.575   3.429   0.000   0.000   5.004
   26        1.575   3.410   0.000   0.000   4.984
   27        1.552   3.536   0.000   0.000   5.087
   28        1.552   3.537   0.000   0.000   5.088
   29        1.575   3.410   0.000   0.000   4.985
   30        1.576   3.430   0.000   0.000   5.005
   31        1.575   3.410   0.000   0.000   4.985
   32        1.552   3.536   0.000   0.000   5.087
   33        1.552   3.536   0.000   0.000   5.087
   34        1.575   3.410   0.000   0.000   4.985
   35        1.576   3.430   0.000   0.000   5.005
   36        1.575   3.410   0.000   0.000   4.985
   37        1.552   3.537   0.000   0.000   5.088
   38        1.552   3.536   0.000   0.000   5.087
   39        1.575   3.410   0.000   0.000   4.984
   40        1.575   3.429   0.000   0.000   5.004
   41        1.575   3.410   0.000   0.000   4.985
   42        1.552   3.536   0.000   0.000   5.087
   43        1.552   3.536   0.000   0.000   5.087
   44        1.575   3.410   0.000   0.000   4.985
--------------------------------------------------
tot         63.755 148.385  29.549   0.830 242.519

 

 total amount of memory used by VASP MPI-rank0    61519. kBytes
=======================================================================

   base      :      30000. kBytes
   nonlr-proj:      10270. kBytes
   fftplans  :       4572. kBytes
   grid      :       8613. kBytes
   one-center:        180. kBytes
   wavefun   :       7884. kBytes
 
  
  
 General timing and accounting informations for this job:
 ========================================================
  
                  Total CPU time used (sec):      343.639
                            User time (sec):      326.152
                          System time (sec):       17.487
                         Elapsed time (sec):      354.419
  
                   Maximum memory used (kb):      168332.
                   Average memory used (kb):           0.
  
                          Minor page faults:        82946
                          Major page faults:            0
                 Voluntary context switches:        93108
