 vasp.5.4.4.18Apr17-6-g9f103f2a35 (build Jun 20 2017 18:00:50) complex          
  
 executed on             LinuxIFC date 2020.05.13  10:47:57
 running on  256 total cores
 distrk:  each k-point on  128 cores,    2 groups
 distr:  one band on NCORES_PER_BAND=   8 cores,   16 groups


--------------------------------------------------------------------------------------------------------


 INCAR:
 POTCAR:    PAW_PBE Y_sv 25May2007                
 POTCAR:    PAW_PBE Ti 08Apr2002                  
 POTCAR:    PAW_PBE S 06Sep2000                   
 POTCAR:    PAW_PBE O 08Apr2002                   

 ----------------------------------------------------------------------------- 
|                                                                             |
|           W    W    AA    RRRRR   N    N  II  N    N   GGGG   !!!           |
|           W    W   A  A   R    R  NN   N  II  NN   N  G    G  !!!           |
|           W    W  A    A  R    R  N N  N  II  N N  N  G       !!!           |
|           W WW W  AAAAAA  RRRRR   N  N N  II  N  N N  G  GGG   !            |
|           WW  WW  A    A  R   R   N   NN  II  N   NN  G    G                |
|           W    W  A    A  R    R  N    N  II  N    N   GGGG   !!!           |
|                                                                             |
|      You have enabled k-point parallelism (KPAR>1).                         |
|      This developmental code was originally  written by Paul Kent at ORNL,  |
|      and carefully double checked in Vienna.                                |
|      GW as well as linear response parallelism added by Martijn Marsman     |
|      and Georg Kresse.                                                      |
|      Carefully verify results versus KPAR=1.                                |
|      Report problems to Paul Kent and Vienna.                               |
|                                                                             |
 ----------------------------------------------------------------------------- 

 POTCAR:    PAW_PBE Y_sv 25May2007                
   VRHFIN =Y: 4s4p5s4d                                                          
   LEXCH  = PE                                                                  
   EATOM  =  1046.9140 eV,   76.9460 Ry                                         
                                                                                
   TITEL  = PAW_PBE Y_sv 25May2007                                              
   LULTRA =        F    use ultrasoft PP ?                                      
   IUNSCR =        1    unscreen: 0-lin 1-nonlin 2-no                           
   RPACOR =    2.200    partial core radius                                     
   POMASS =   88.906; ZVAL   =   11.000    mass and valenz                      
   RCORE  =    2.800    outmost cutoff radius                                   
   RWIGS  =    3.430; RWIGS  =    1.815    wigner-seitz radius (au A)           
   ENMAX  =  202.626; ENMIN  =  151.970 eV                                      
   RCLOC  =    2.212    cutoff for local pot                                    
   LCOR   =        T    correct aug charges                                     
   LPAW   =        T    paw PP                                                  
   EAUG   =  470.889                                                            
   DEXC   =    0.000                                                            
   RMAX   =    2.863    core radius for proj-oper                               
   RAUG   =    1.300    factor for augmentation sphere                          
   RDEP   =    2.926    radius for radial grids                                 
   RDEPT  =    2.280    core radius for aug-charge                              
                                                                                
   Atomic configuration                                                         
   11 entries                                                                   
     n  l   j            E        occ.                                          
     1  0  0.50    -16863.0720   2.0000                                         
     2  0  0.50     -2309.2881   2.0000                                         
     2  1  1.50     -2055.5536   6.0000                                         
     3  0  0.50      -367.1837   2.0000                                         
     3  1  1.50      -284.8912   6.0000                                         
     3  2  2.50      -149.4324  10.0000                                         
     4  0  0.50       -46.3345   2.0000                                         
     5  0  0.50        -3.6387   1.0000                                         
     4  1  1.50       -26.3769   6.0000                                         
     4  2  2.50        -1.6291   2.0000                                         
     4  3  2.50        -1.3606   0.0000                                         
   Description                                                                  
     l       E           TYP  RCUT    TYP  RCUT                                 
     0    -46.3344714     23  2.600                                             
     0     -3.6387002     23  2.700                                             
     1    -26.3769044     23  2.600                                             
     1    -27.7374870     23  2.600                                             
     2     -1.6291019     23  2.600                                             
     2      0.1354037     23  2.600                                             
     3     -1.3605826     23  2.800                                             
  local pseudopotential read in
  partial core-charges read in
  partial kinetic energy density read in
  atomic valenz-charges read in
  non local Contribution for L=           0  read in
    real space projection operators read in
  non local Contribution for L=           0  read in
    real space projection operators read in
  non local Contribution for L=           1  read in
    real space projection operators read in
  non local Contribution for L=           1  read in
    real space projection operators read in
  non local Contribution for L=           2  read in
    real space projection operators read in
  non local Contribution for L=           2  read in
    real space projection operators read in
  non local Contribution for L=           3  read in
    real space projection operators read in
    PAW grid and wavefunctions read in
 
   number of l-projection  operators is LMAX  =           7
   number of lm-projection operators is LMMAX =          25
 
 POTCAR:    PAW_PBE Ti 08Apr2002                  
   VRHFIN =Ti: d3 s1                                                            
   LEXCH  = PE                                                                  
   EATOM  =    94.7928 eV,    6.9671 Ry                                         
                                                                                
   TITEL  = PAW_PBE Ti 08Apr2002                                                
   LULTRA =        F    use ultrasoft PP ?                                      
   IUNSCR =        1    unscreen: 0-lin 1-nonlin 2-no                           
   RPACOR =    2.200    partial core radius                                     
   POMASS =   47.880; ZVAL   =    4.000    mass and valenz                      
   RCORE  =    2.800    outmost cutoff radius                                   
   RWIGS  =    2.500; RWIGS  =    1.323    wigner-seitz radius (au A)           
   ENMAX  =  178.330; ENMIN  =  133.747 eV                                      
   RCLOC  =    2.215    cutoff for local pot                                    
   LCOR   =        T    correct aug charges                                     
   LPAW   =        T    paw PP                                                  
   EAUG   =  328.883                                                            
   DEXC   =    0.000                                                            
   RMAX   =    2.868    core radius for proj-oper                               
   RAUG   =    1.300    factor for augmentation sphere                          
   RDEP   =    2.885    radius for radial grids                                 
   RDEPT  =    2.320    core radius for aug-charge                              
                                                                                
   Atomic configuration                                                         
    9 entries                                                                   
     n  l   j            E        occ.                                          
     1  0  0.50     -4865.3608   2.0000                                         
     2  0  0.50      -533.1367   2.0000                                         
     2  1  1.50      -440.5031   6.0000                                         
     3  0  0.50       -59.3186   2.0000                                         
     3  1  1.50       -35.7012   6.0000                                         
     3  2  2.50        -1.9157   3.0000                                         
     4  0  0.50        -3.7291   1.0000                                         
     4  1  1.50        -4.0817   0.0000                                         
     4  3  2.50        -1.3606   0.0000                                         
   Description                                                                  
     l       E           TYP  RCUT    TYP  RCUT                                 
     2     -1.9156924     23  2.800                                             
     2     -0.4062961     23  2.800                                             
     0     -3.7290832     23  2.800                                             
     0     20.4087390     23  2.800                                             
     1     -5.4423304     23  2.800                                             
  local pseudopotential read in
  partial core-charges read in
  partial kinetic energy density read in
  atomic valenz-charges read in
  non local Contribution for L=           2  read in
    real space projection operators read in
  non local Contribution for L=           2  read in
    real space projection operators read in
  non local Contribution for L=           0  read in
    real space projection operators read in
  non local Contribution for L=           0  read in
    real space projection operators read in
  non local Contribution for L=           1  read in
    real space projection operators read in
    PAW grid and wavefunctions read in
 
   number of l-projection  operators is LMAX  =           5
   number of lm-projection operators is LMMAX =          15
 
 POTCAR:    PAW_PBE S 06Sep2000                   
   VRHFIN =S : s2p4                                                             
   LEXCH  = PE                                                                  
   EATOM  =   276.8230 eV,   20.3459 Ry                                         
                                                                                
   TITEL  = PAW_PBE S 06Sep2000                                                 
   LULTRA =        F    use ultrasoft PP ?                                      
   IUNSCR =        1    unscreen: 0-lin 1-nonlin 2-no                           
   RPACOR =    1.500    partial core radius                                     
   POMASS =   32.066; ZVAL   =    6.000    mass and valenz                      
   RCORE  =    1.900    outmost cutoff radius                                   
   RWIGS  =    2.200; RWIGS  =    1.164    wigner-seitz radius (au A)           
   ENMAX  =  258.689; ENMIN  =  194.016 eV                                      
   ICORE  =        2    local potential                                         
   LCOR   =        T    correct aug charges                                     
   LPAW   =        T    paw PP                                                  
   EAUG   =  335.092                                                            
   DEXC   =    0.000                                                            
   RMAX   =    1.942    core radius for proj-oper                               
   RAUG   =    1.300    factor for augmentation sphere                          
   RDEP   =    1.954    radius for radial grids                                 
   RDEPT  =    1.744    core radius for aug-charge                              
                                                                                
   Atomic configuration                                                         
    6 entries                                                                   
     n  l   j            E        occ.                                          
     1  0  0.50     -2405.8406   2.0000                                         
     2  0  0.50      -211.7007   2.0000                                         
     2  1  1.50      -156.4958   6.0000                                         
     3  0  0.50       -17.2562   2.0000                                         
     3  1  0.50        -7.0085   4.0000                                         
     3  2  1.50        -6.8029   0.0000                                         
   Description                                                                  
     l       E           TYP  RCUT    TYP  RCUT                                 
     0    -17.2561641     23  1.900                                             
     0    -15.8743224     23  1.900                                             
     1     -7.0085400     23  1.900                                             
     1     -2.7779785     23  1.900                                             
     2     -6.8029130     23  1.900                                             
  local pseudopotential read in
  partial core-charges read in
  partial kinetic energy density read in
  atomic valenz-charges read in
  non local Contribution for L=           0  read in
    real space projection operators read in
  non local Contribution for L=           0  read in
    real space projection operators read in
  non local Contribution for L=           1  read in
    real space projection operators read in
  non local Contribution for L=           1  read in
    real space projection operators read in
    PAW grid and wavefunctions read in
 
   number of l-projection  operators is LMAX  =           4
   number of lm-projection operators is LMMAX =           8
 
 POTCAR:    PAW_PBE O 08Apr2002                   
   VRHFIN =O: s2p4                                                              
   LEXCH  = PE                                                                  
   EATOM  =   432.3788 eV,   31.7789 Ry                                         
                                                                                
   TITEL  = PAW_PBE O 08Apr2002                                                 
   LULTRA =        F    use ultrasoft PP ?                                      
   IUNSCR =        1    unscreen: 0-lin 1-nonlin 2-no                           
   RPACOR =    1.200    partial core radius                                     
   POMASS =   16.000; ZVAL   =    6.000    mass and valenz                      
   RCORE  =    1.520    outmost cutoff radius                                   
   RWIGS  =    1.550; RWIGS  =    0.820    wigner-seitz radius (au A)           
   ENMAX  =  400.000; ENMIN  =  300.000 eV                                      
   ICORE  =        2    local potential                                         
   LCOR   =        T    correct aug charges                                     
   LPAW   =        T    paw PP                                                  
   EAUG   =  605.392                                                            
   DEXC   =    0.000                                                            
   RMAX   =    1.553    core radius for proj-oper                               
   RAUG   =    1.300    factor for augmentation sphere                          
   RDEP   =    1.550    radius for radial grids                                 
   RDEPT  =    1.329    core radius for aug-charge                              
                                                                                
   Atomic configuration                                                         
    4 entries                                                                   
     n  l   j            E        occ.                                          
     1  0  0.50      -514.6923   2.0000                                         
     2  0  0.50       -23.9615   2.0000                                         
     2  1  0.50        -9.0305   4.0000                                         
     3  2  1.50        -9.5241   0.0000                                         
   Description                                                                  
     l       E           TYP  RCUT    TYP  RCUT                                 
     0    -23.9615318     23  1.200                                             
     0     -9.5240782     23  1.200                                             
     1     -9.0304911     23  1.520                                             
     1      8.1634956     23  1.520                                             
     2     -9.5240782      7  1.500                                             
  local pseudopotential read in
  partial core-charges read in
  partial kinetic energy density read in
  kinetic energy density of atom read in
  atomic valenz-charges read in
  non local Contribution for L=           0  read in
    real space projection operators read in
  non local Contribution for L=           0  read in
    real space projection operators read in
  non local Contribution for L=           1  read in
    real space projection operators read in
  non local Contribution for L=           1  read in
    real space projection operators read in
    PAW grid and wavefunctions read in
 
   number of l-projection  operators is LMAX  =           4
   number of lm-projection operators is LMMAX =           8
 
 Optimization of the real space projectors (new method)

 maximal supplied QI-value         = 13.42
 optimisation between [QCUT,QGAM] = [ 11.67, 23.35] = [ 38.16,152.62] Ry 
 Optimized for a Real-space Cutoff    1.68 Angstroem

   l    n(q)    QCUT    max X(q) W(low)/X(q) W(high)/X(q)  e(spline) 
   0     12    11.673    14.902    0.22E-04    0.24E-05    0.52E-07
   0     12    11.673     9.294    0.34E-04    0.58E-05    0.89E-07
   1     11    11.673    69.520    0.10E-04    0.47E-04    0.49E-06
   1     11    11.673    72.085    0.10E-04    0.48E-04    0.50E-06
   2     11    11.673    62.934    0.94E-04    0.14E-04    0.82E-06
   2     11    11.673    49.749    0.91E-04    0.13E-04    0.79E-06
   3     10    11.673     8.311    0.92E-04    0.21E-04    0.59E-06
 Optimization of the real space projectors (new method)

 maximal supplied QI-value         = 13.42
 optimisation between [QCUT,QGAM] = [ 11.67, 23.35] = [ 38.16,152.62] Ry 
 Optimized for a Real-space Cutoff    1.58 Angstroem

   l    n(q)    QCUT    max X(q) W(low)/X(q) W(high)/X(q)  e(spline) 
   2     10    11.673    49.363    0.16E-03    0.28E-03    0.91E-06
   2     10    11.673    47.669    0.16E-03    0.27E-03    0.88E-06
   0     11    11.673    26.374    0.54E-04    0.10E-03    0.52E-06
   0     11    11.673    11.549    0.41E-04    0.83E-04    0.43E-06
   1     11    11.673     9.492    0.36E-04    0.11E-04    0.17E-06
 Optimization of the real space projectors (new method)

 maximal supplied QI-value         = 19.84
 optimisation between [QCUT,QGAM] = [ 11.51, 23.22] = [ 37.09,150.92] Ry 
 Optimized for a Real-space Cutoff    1.21 Angstroem

   l    n(q)    QCUT    max X(q) W(low)/X(q) W(high)/X(q)  e(spline) 
   0      8    11.508   187.594    0.96E-04    0.18E-03    0.54E-07
   0      8    11.508   164.243    0.96E-04    0.18E-03    0.54E-07
   1      8    11.508    67.533    0.18E-03    0.65E-04    0.94E-07
   1      8    11.508    50.729    0.18E-03    0.63E-04    0.92E-07
 Optimization of the real space projectors (new method)

 maximal supplied QI-value         = 24.76
 optimisation between [QCUT,QGAM] = [ 11.64, 23.27] = [ 37.91,151.63] Ry 
 Optimized for a Real-space Cutoff    1.14 Angstroem

   l    n(q)    QCUT    max X(q) W(low)/X(q) W(high)/X(q)  e(spline) 
   0      8    11.635    20.381    0.10E-03    0.33E-03    0.24E-06
   0      8    11.635    15.268    0.11E-03    0.35E-03    0.26E-06
   1      7    11.635     5.964    0.24E-03    0.31E-03    0.30E-06
   1      7    11.635     5.382    0.22E-03    0.25E-03    0.26E-06

 ----------------------------------------------------------------------------- 
|                                                                             |
|  ADVICE TO THIS USER RUNNING 'VASP/VAMP'   (HEAR YOUR MASTER'S VOICE ...):  |
|                                                                             |
|      You enforced a specific xc-type in the INCAR file,                     |
|      a different type was found on the POTCAR file                          |
|          I HOPE YOU KNOW, WHAT YOU ARE  DOING                               |
|                                                                             |
 ----------------------------------------------------------------------------- 

  PAW_PBE Y_sv 25May2007                :
 energy of atom  1       EATOM=-1046.9140
 kinetic energy error for atom=    0.0008 (will be added to EATOM!!)
  PAW_PBE Ti 08Apr2002                  :
 energy of atom  2       EATOM=  -94.7928
 kinetic energy error for atom=    0.0002 (will be added to EATOM!!)
  PAW_PBE S 06Sep2000                   :
 energy of atom  3       EATOM= -276.8230
 kinetic energy error for atom=    0.0016 (will be added to EATOM!!)
  PAW_PBE O 08Apr2002                   :
 energy of atom  4       EATOM= -432.3788
 kinetic energy error for atom=    0.0208 (will be added to EATOM!!)
 
 
 POSCAR: Y12 Ti12 S12 O30                        
  positions in direct lattice
  No initial velocities read in
 exchange correlation table for  LEXCH =       14
   RHO(1)=    0.500       N(1)  =     2000
   RHO(2)=  100.500       N(2)  =     4000
 


--------------------------------------------------------------------------------------------------------


 ion  position               nearest neighbor table
   1  0.500  0.500  0.403-  39 2.41  41 2.41  41 2.41  39 2.41  26 2.81  26 2.81  26 2.81  26 2.81
                            29 2.88  14 3.32  14 3.32  14 3.32  14 3.32
   2  0.000  0.000  0.264-  38 2.41  40 2.41  38 2.41  40 2.41  25 2.81  25 2.81  25 2.81  25 2.81
                            13 3.32  13 3.32  13 3.32  13 3.32
   3  0.000  0.000  0.320-  44 2.41  46 2.41  46 2.41  44 2.41  28 2.81  28 2.81  28 2.81  28 2.81
                            27 2.88  16 3.32  16 3.32  16 3.32  16 3.32
   4  0.500  0.500  0.347-  43 2.41  45 2.41  43 2.41  45 2.41  27 2.81  27 2.81  27 2.81  27 2.81
                            28 2.88  15 3.32  15 3.32  15 3.32  15 3.32
   5  0.500  0.500  0.570-  49 2.41  51 2.41  51 2.41  49 2.41  30 2.81  30 2.81  30 2.81  30 2.81
                            33 2.88  18 3.32  18 3.32  18 3.32  18 3.32
   6  0.000  0.000  0.430-  48 2.41  50 2.41  48 2.41  50 2.41  29 2.81  29 2.81  29 2.81  29 2.81
                            26 2.88  17 3.32  17 3.32  17 3.32  17 3.32
   7  0.000  0.000  0.486-  54 2.41  56 2.41  56 2.41  54 2.41  32 2.81  32 2.81  32 2.81  32 2.81
                            31 2.88  20 3.32  20 3.32  20 3.32  20 3.32
   8  0.500  0.500  0.514-  53 2.41  55 2.41  53 2.41  55 2.41  31 2.81  31 2.81  31 2.81  31 2.81
                            32 2.88  19 3.32  19 3.32  19 3.32  19 3.32
   9  0.500  0.500  0.736-  59 2.41  61 2.41  61 2.41  59 2.41  34 2.81  34 2.81  34 2.81  34 2.81
                            22 3.32  22 3.32  22 3.32  22 3.32
  10  0.000  0.000  0.597-  58 2.41  60 2.41  58 2.41  60 2.41  33 2.81  33 2.81  33 2.81  33 2.81
                            30 2.88  21 3.32  21 3.32  21 3.32  21 3.32
  11  0.000  0.000  0.653-  64 2.41  66 2.41  66 2.41  64 2.41  36 2.81  36 2.81  36 2.81  36 2.81
                            35 2.88  24 3.32  24 3.32  24 3.32  24 3.32
  12  0.500  0.500  0.680-  63 2.41  65 2.41  63 2.41  65 2.41  35 2.81  35 2.81  35 2.81  35 2.81
                            36 2.88  23 3.32  23 3.32  23 3.32  23 3.32
  13  0.500  0.500  0.278-  42 1.82  40 1.94  38 1.94  40 1.94  38 1.94  25 2.85   2 3.32   2 3.32
                             2 3.32   2 3.32
  14  0.000  0.000  0.388-  37 1.82  39 1.94  41 1.94  39 1.94  41 1.94  26 2.85   1 3.32   1 3.32
                             1 3.32   1 3.32
  15  0.000  0.000  0.362-  37 1.82  43 1.94  45 1.94  45 1.94  43 1.94  27 2.85   4 3.32   4 3.32
                             4 3.32   4 3.32
  16  0.500  0.500  0.305-  42 1.82  44 1.94  46 1.94  44 1.94  46 1.94  28 2.85   3 3.32   3 3.32
                             3 3.32   3 3.32
  17  0.500  0.500  0.445-  52 1.82  50 1.94  48 1.94  50 1.94  48 1.94  29 2.85   6 3.32   6 3.32
                             6 3.32   6 3.32
  18  0.000  0.000  0.555-  47 1.82  49 1.94  51 1.94  49 1.94  51 1.94  30 2.85   5 3.32   5 3.32
                             5 3.32   5 3.32
  19  0.000  0.000  0.528-  47 1.82  53 1.94  55 1.94  55 1.94  53 1.94  31 2.85   8 3.32   8 3.32
                             8 3.32   8 3.32
  20  0.500  0.500  0.472-  52 1.82  54 1.94  56 1.94  54 1.94  56 1.94  32 2.85   7 3.32   7 3.32
                             7 3.32   7 3.32
  21  0.500  0.500  0.612-  62 1.82  60 1.94  58 1.94  60 1.94  58 1.94  33 2.85  10 3.32  10 3.32
                            10 3.32  10 3.32
  22  0.000  0.000  0.722-  57 1.82  59 1.94  61 1.94  59 1.94  61 1.94  34 2.85   9 3.32   9 3.32
                             9 3.32   9 3.32
  23  0.000  0.000  0.695-  57 1.82  63 1.94  65 1.94  65 1.94  63 1.94  35 2.85  12 3.32  12 3.32
                            12 3.32  12 3.32
  24  0.500  0.500  0.638-  62 1.82  64 1.94  66 1.94  64 1.94  66 1.94  36 2.85  11 3.32  11 3.32
                            11 3.32  11 3.32
  25  0.500  0.500  0.257-   2 2.81   2 2.81   2 2.81   2 2.81  13 2.85
  26  0.000  0.000  0.409-   1 2.81   1 2.81   1 2.81   1 2.81  14 2.85   6 2.88
  27  0.000  0.000  0.341-   4 2.81   4 2.81   4 2.81   4 2.81  15 2.85   3 2.88
  28  0.500  0.500  0.326-   3 2.81   3 2.81   3 2.81   3 2.81  16 2.85   4 2.88
  29  0.500  0.500  0.424-   6 2.81   6 2.81   6 2.81   6 2.81  17 2.85   1 2.88
  30  0.000  0.000  0.576-   5 2.81   5 2.81   5 2.81   5 2.81  18 2.85  10 2.88
  31  0.000  0.000  0.507-   8 2.81   8 2.81   8 2.81   8 2.81  19 2.85   7 2.88
  32  0.500  0.500  0.493-   7 2.81   7 2.81   7 2.81   7 2.81  20 2.85   8 2.88
  33  0.500  0.500  0.591-  10 2.81  10 2.81  10 2.81  10 2.81  21 2.85   5 2.88
  34  0.000  0.000  0.743-   9 2.81   9 2.81   9 2.81   9 2.81  22 2.85
  35  0.000  0.000  0.674-  12 2.81  12 2.81  12 2.81  12 2.81  23 2.85  11 2.88
  36  0.500  0.500  0.659-  11 2.81  11 2.81  11 2.81  11 2.81  24 2.85  12 2.88
  37  0.000  0.000  0.375-  14 1.82  15 1.82
  38  0.000  0.500  0.275-  13 1.94  13 1.94   2 2.41   2 2.41
  39  0.000  0.500  0.392-  14 1.94  14 1.94   1 2.41   1 2.41
  40  0.500  0.000  0.275-  13 1.94  13 1.94   2 2.41   2 2.41
  41  0.500  0.000  0.392-  14 1.94  14 1.94   1 2.41   1 2.41
  42  0.500  0.500  0.292-  13 1.82  16 1.82
  43  0.500  0.000  0.358-  15 1.94  15 1.94   4 2.41   4 2.41
  44  0.500  0.000  0.309-  16 1.94  16 1.94   3 2.41   3 2.41
  45  0.000  0.500  0.358-  15 1.94  15 1.94   4 2.41   4 2.41
  46  0.000  0.500  0.309-  16 1.94  16 1.94   3 2.41   3 2.41
  47  0.000  0.000  0.542-  19 1.82  18 1.82
  48  0.000  0.500  0.441-  17 1.94  17 1.94   6 2.41   6 2.41
  49  0.000  0.500  0.559-  18 1.94  18 1.94   5 2.41   5 2.41
  50  0.500  0.000  0.441-  17 1.94  17 1.94   6 2.41   6 2.41
  51  0.500  0.000  0.559-  18 1.94  18 1.94   5 2.41   5 2.41
  52  0.500  0.500  0.458-  20 1.82  17 1.82
  53  0.500  0.000  0.525-  19 1.94  19 1.94   8 2.41   8 2.41
  54  0.500  0.000  0.475-  20 1.94  20 1.94   7 2.41   7 2.41
  55  0.000  0.500  0.525-  19 1.94  19 1.94   8 2.41   8 2.41
  56  0.000  0.500  0.475-  20 1.94  20 1.94   7 2.41   7 2.41
  57  0.000  0.000  0.708-  22 1.82  23 1.82
  58  0.000  0.500  0.608-  21 1.94  21 1.94  10 2.41  10 2.41
  59  0.000  0.500  0.725-  22 1.94  22 1.94   9 2.41   9 2.41
  60  0.500  0.000  0.608-  21 1.94  21 1.94  10 2.41  10 2.41
  61  0.500  0.000  0.725-  22 1.94  22 1.94   9 2.41   9 2.41
  62  0.500  0.500  0.625-  21 1.82  24 1.82
  63  0.500  0.000  0.691-  23 1.94  23 1.94  12 2.41  12 2.41
  64  0.500  0.000  0.642-  24 1.94  24 1.94  11 2.41  11 2.41
  65  0.000  0.500  0.691-  23 1.94  23 1.94  12 2.41  12 2.41
  66  0.000  0.500  0.642-  24 1.94  24 1.94  11 2.41  11 2.41
 
  LATTYP: Found a simple tetragonal cell.
 ALAT       =     3.7700230000
 C/A-ratio  =    36.1326922939
  
  Lattice vectors:
  
 A1 = (   3.7700230000,   0.0000000000,   0.0000000000)
 A2 = (   0.0000000000,   3.7700230000,   0.0000000000)
 A3 = (   0.0000000000,   0.0000000000, 136.2210810000)


Analysis of symmetry for initial positions (statically):
=====================================================================
 Subroutine PRICEL returns:
 Original cell was already a primitive cell.
 

 Routine SETGRP: Setting up the symmetry group for a 
 simple tetragonal supercell.


 Subroutine GETGRP returns: Found 16 space group operations
 (whereof  8 operations were pure point group operations)
 out of a pool of 16 trial point group operations.


The static configuration has the point symmetry C_4v.
 The point group associated with its full space group is D_4h.


Analysis of symmetry for dynamics (positions and initial velocities):
=====================================================================
 Subroutine PRICEL returns:
 Original cell was already a primitive cell.
 

 Routine SETGRP: Setting up the symmetry group for a 
 simple tetragonal supercell.


 Subroutine GETGRP returns: Found 16 space group operations
 (whereof  8 operations were pure point group operations)
 out of a pool of 16 trial point group operations.


The dynamic configuration has the point symmetry C_4v.
 The point group associated with its full space group is D_4h.


 Subroutine INISYM returns: Found 16 space group operations
 (whereof  8 operations are pure point group operations),
 and found     1 'primitive' translations

 
 
 KPOINTS: Automatic mesh                          

Automatic generation of k-mesh.
Space group operators:
 irot       det(A)        alpha          n_x          n_y          n_z        tau_x        tau_y        tau_z
    1     1.000000     0.000000     1.000000     0.000000     0.000000     0.000000     0.000000     0.000000
    2     1.000000    90.000000     0.000000     0.000000    -1.000000     0.000000     0.000000     0.000000
    3     1.000000   180.000000     0.000000     0.000000     1.000000     0.000000     0.000000     0.000000
    4     1.000000    90.000000     0.000000     0.000000     1.000000     0.000000     0.000000     0.000000
    5    -1.000000   180.000000     0.000000     1.000000     0.000000     0.000000     0.000000     0.000000
    6    -1.000000   180.000000     0.707107     0.707107     0.000000     0.000000     0.000000     0.000000
    7    -1.000000   180.000000     1.000000     0.000000     0.000000     0.000000     0.000000     0.000000
    8    -1.000000   180.000000     0.707107    -0.707107     0.000000     0.000000     0.000000     0.000000
    9    -1.000000     0.000000     1.000000     0.000000     0.000000     0.500000     0.500000     0.000000
   10    -1.000000    90.000000     0.000000     0.000000    -1.000000     0.500000     0.500000     0.000000
   11    -1.000000   180.000000     0.000000     0.000000     1.000000     0.500000     0.500000     0.000000
   12    -1.000000    90.000000     0.000000     0.000000     1.000000     0.500000     0.500000     0.000000
   13     1.000000   180.000000     0.000000     1.000000     0.000000     0.500000     0.500000     0.000000
   14     1.000000   180.000000     0.707107     0.707107     0.000000     0.500000     0.500000     0.000000
   15     1.000000   180.000000     1.000000     0.000000     0.000000     0.500000     0.500000     0.000000
   16     1.000000   180.000000     0.707107    -0.707107     0.000000     0.500000     0.500000     0.000000
 
 Subroutine IBZKPT returns following result:
 ===========================================
 
 Found     10 irreducible k-points:
 
 Following reciprocal coordinates:
            Coordinates               Weight
  0.000000  0.000000  0.000000      1.000000
  0.166667  0.000000  0.000000      4.000000
  0.333333  0.000000  0.000000      4.000000
  0.500000  0.000000  0.000000      2.000000
  0.166667  0.166667  0.000000      4.000000
  0.333333  0.166667  0.000000      8.000000
  0.500000  0.166667  0.000000      4.000000
  0.333333  0.333333  0.000000      4.000000
  0.500000  0.333333  0.000000      4.000000
  0.500000  0.500000  0.000000      1.000000
 
 Following cartesian coordinates:
            Coordinates               Weight
  0.000000  0.000000  0.000000      1.000000
  0.044208  0.000000  0.000000      4.000000
  0.088417  0.000000  0.000000      4.000000
  0.132625  0.000000  0.000000      2.000000
  0.044208  0.044208  0.000000      4.000000
  0.088417  0.044208  0.000000      8.000000
  0.132625  0.044208  0.000000      4.000000
  0.088417  0.088417  0.000000      4.000000
  0.132625  0.088417  0.000000      4.000000
  0.132625  0.132625  0.000000      1.000000
 


--------------------------------------------------------------------------------------------------------




 Dimension of arrays:
   k-points           NKPTS =     10   k-points in BZ     NKDIM =     10   number of bands    NBANDS=    272
   number of dos      NEDOS =   2000   number of ions     NIONS =     66
   non local maximal  LDIM  =      7   non local SUM 2l+1 LMDIM =     25
   total plane-waves  NPLWV = 802816
   max r-space proj   IRMAX =   8227   max aug-charges    IRDMAX=  30089
   dimension x,y,z NGX =    28 NGY =   28 NGZ = 1024
   dimension x,y,z NGXF=    56 NGYF=   56 NGZF= 2048
   support grid    NGXF=    56 NGYF=   56 NGZF= 2048
   ions per type =              12  12  12  30
   NGX,Y,Z   is equivalent  to a cutoff of  12.35, 12.35, 12.50 a.u.
   NGXF,Y,Z  is equivalent  to a cutoff of  24.69, 24.69, 24.99 a.u.

 SYSTEM =  Generic Input                           
 POSCAR =  Y12 Ti12 S12 O30                        

 Startparameter for this run:
   NWRITE =      2    write-flag & timer
   PREC   = accura    normal or accurate (medium, high low for compatibility)
   ISTART =      0    job   : 0-new  1-cont  2-samecut
   ICHARG =      2    charge: 1-file 2-atom 10-const
   ISPIN  =      1    spin polarized calculation?
   LNONCOLLINEAR =      F non collinear calculations
   LSORBIT =      F    spin-orbit coupling
   INIWAV =      1    electr: 0-lowe 1-rand  2-diag
   LASPH  =      T    aspherical Exc in radial PAW
   METAGGA=      F    non-selfconsistent MetaGGA calc.

 Electronic Relaxation 1
   ENCUT  =  520.0 eV  38.22 Ry    6.18 a.u.   7.01  7.01253.28*2*pi/ulx,y,z
   ENINI  =  520.0     initial cutoff
   ENAUG  =  605.4 eV  augmentation charge cutoff
   NELM   =    200;   NELMIN=  2; NELMDL=  0     # of ELM steps 
   EDIFF  = 0.1E-05   stopping-criterion for ELM
   LREAL  =      T    real-space projection
   NLSPLINE    = F    spline interpolate recip. space projectors
   LCOMPAT=      F    compatible to vasp.4.4
   GGA_COMPAT  = T    GGA compatible to vasp.4.4-vasp.4.6
   LMAXPAW     = -100 max onsite density
   LMAXMIX     =    2 max onsite mixed and CHGCAR
   VOSKOWN=      0    Vosko Wilk Nusair interpolation
   ROPT   =   -0.00025  -0.00025  -0.00025  -0.00025
 Ionic relaxation
   EDIFFG = -.1E-01   stopping-criterion for IOM
   NSW    =      0    number of steps for IOM
   NBLOCK =      1;   KBLOCK =      1    inner block; outer block 
   IBRION =     -1    ionic relax: 0-MD 1-quasi-New 2-CG
   NFREE  =      0    steps in history (QN), initial steepest desc. (CG)
   ISIF   =      2    stress and relaxation
   IWAVPR =     11    prediction:  0-non 1-charg 2-wave 3-comb
   ISYM   =      2    0-nonsym 1-usesym 2-fastsym
   LCORR  =      T    Harris-Foulkes like correction to forces

   POTIM  = 0.5000    time-step for ionic-motion
   TEIN   =    0.0    initial temperature
   TEBEG  =    0.0;   TEEND  =   0.0 temperature during run
   SMASS  =  -3.00    Nose mass-parameter (am)
   estimated Nose-frequenzy (Omega)   =  0.10E-29 period in steps =****** mass=  -0.325E-27a.u.
   SCALEE = 1.0000    scale energy and forces
   NPACO  =    256;   APACO  = 16.0  distance and # of slots for P.C.
   PSTRESS=    0.0 pullay stress

  Mass of Ions in am
   POMASS =  88.91 47.88 32.07 16.00
  Ionic Valenz
   ZVAL   =  11.00  4.00  6.00  6.00
  Atomic Wigner-Seitz radii
   RWIGS  =  -1.00 -1.00 -1.00 -1.00
  virtual crystal weights 
   VCA    =   1.00  1.00  1.00  1.00
   NELECT =     432.0000    total number of electrons
   NUPDOWN=      -1.0000    fix difference up-down

 DOS related values:
   EMIN   =  10.00;   EMAX   =-10.00  energy-range for DOS
   EFERMI =   0.00
   ISMEAR =     0;   SIGMA  =   0.02  broadening in eV -4-tet -1-fermi 0-gaus

 Electronic relaxation 2 (details)
   IALGO  =     38    algorithm
   LDIAG  =      T    sub-space diagonalisation (order eigenvalues)
   LSUBROT=      F    optimize rotation matrix (better conditioning)
   TURBO    =      0    0=normal 1=particle mesh
   IRESTART =      0    0=no restart 2=restart with 2 vectors
   NREBOOT  =      0    no. of reboots
   NMIN     =      0    reboot dimension
   EREF     =   0.00    reference energy to select bands
   IMIX   =      4    mixing-type and parameters
     AMIX     =   0.40;   BMIX     =  1.00
     AMIX_MAG =   1.60;   BMIX_MAG =  1.00
     AMIN     =   0.05
     WC   =   100.;   INIMIX=   1;  MIXPRE=   1;  MAXMIX= -45

 Intra band minimization:
   WEIMIN = 0.0000     energy-eigenvalue tresh-hold
   EBREAK =  0.92E-09  absolut break condition
   DEPER  =   0.30     relativ break condition  

   TIME   =   0.40     timestep for ELM

  volume/ion in A,a.u.               =      29.34       197.96
  Fermi-wavevector in a.u.,A,eV,Ry     =   0.992945  1.876394 13.414532  0.985940
  Thomas-Fermi vector in A             =   2.124793
 
 Write flags
   LWAVE        =      F    write WAVECAR
   LDOWNSAMPLE  =      F    k-point downsampling of WAVECAR
   LCHARG       =      F    write CHGCAR
   LVTOT        =      F    write LOCPOT, total local potential
   LVHAR        =      T    write LOCPOT, Hartree potential only
   LELF         =      F    write electronic localiz. function (ELF)
   LORBIT       =     11    0 simple, 1 ext, 2 COOP (PROOUT), +10 PAW based schemes


 Dipole corrections
   LMONO  =      F    monopole corrections only (constant potential shift)
   LDIPOL =      F    correct potential (dipole corrections)
   IDIPOL =      0    1-x, 2-y, 3-z, 4-all directions 
   EPSILON=  1.0000000 bulk dielectric constant

 Core level calculations are selected ICORELEVEL =  1
 Exchange correlation treatment:
   GGA     =    PS    GGA type
   LEXCH   =    14    internal setting for exchange type
   VOSKOWN=      0    Vosko Wilk Nusair interpolation
   LHFCALC =     F    Hartree Fock is set to
   LHFONE  =     F    Hartree Fock one center treatment
   AEXX    =    0.0000 exact exchange contribution

 Linear response parameters
   LEPSILON=     F    determine dielectric tensor
   LRPA    =     F    only Hartree local field effects (RPA)
   LNABLA  =     F    use nabla operator in PAW spheres
   LVEL    =     F    velocity operator in full k-point grid
   LINTERFAST=   F  fast interpolation
   KINTER  =     0    interpolate to denser k-point grid
   CSHIFT  =0.1000    complex shift for real part using Kramers Kronig
   OMEGAMAX=  -1.0    maximum frequency
   DEG_THRESHOLD= 0.2000000E-02 threshold for treating states as degnerate
   RTIME   =   -0.100 relaxation time in fs
  (WPLASMAI=    0.000 imaginary part of plasma frequency in eV, 0.658/RTIME)
   DFIELD  = 0.0000000 0.0000000 0.0000000 field for delta impulse in time
 
 Orbital magnetization related:
   ORBITALMAG=     F  switch on orbital magnetization
   LCHIMAG   =     F  perturbation theory with respect to B field
   DQ        =  0.001000  dq finite difference perturbation B field
   LLRAUG    =     F  two centre corrections for induced B field



--------------------------------------------------------------------------------------------------------


 Static calculation
 charge density and potential will be updated during run
 non-spin polarized calculation
 Variant of blocked Davidson
 Davidson routine will perform the subspace rotation
 perform sub-space diagonalisation
    after iterative eigenvector-optimisation
 modified Broyden-mixing scheme, WC =      100.0
 initial mixing is a Kerker type mixing with AMIX =  0.4000 and BMIX =      1.0000
 Hartree-type preconditioning will be used
 using additional bands           56
 real space projection scheme for non local part
 use partial core corrections
 calculate Harris-corrections to forces 
   (improved forces if not selfconsistent)
 use gradient corrections 
 use of overlap-Matrix (Vanderbilt PP)
 Gauss-broadening in eV      SIGMA  =   0.02


--------------------------------------------------------------------------------------------------------


  energy-cutoff  :      520.00
  volume of cell :     1936.12
      direct lattice vectors                 reciprocal lattice vectors
     3.770023000  0.000000000  0.000000000     0.265250371  0.000000000  0.000000000
     0.000000000  3.770023000  0.000000000     0.000000000  0.265250371  0.000000000
     0.000000000  0.000000000136.221081000     0.000000000  0.000000000  0.007341008

  length of vectors
     3.770023000  3.770023000136.221081000     0.265250371  0.265250371  0.007341008


 
 k-points in units of 2pi/SCALE and weight: Automatic mesh                          
   0.00000000  0.00000000  0.00000000       0.028
   0.04420840  0.00000000  0.00000000       0.111
   0.08841679  0.00000000  0.00000000       0.111
   0.13262519  0.00000000  0.00000000       0.056
   0.04420840  0.04420840  0.00000000       0.111
   0.08841679  0.04420840  0.00000000       0.222
   0.13262519  0.04420840  0.00000000       0.111
   0.08841679  0.08841679  0.00000000       0.111
   0.13262519  0.08841679  0.00000000       0.111
   0.13262519  0.13262519  0.00000000       0.028
 
 k-points in reciprocal lattice and weights: Automatic mesh                          
   0.00000000  0.00000000  0.00000000       0.028
   0.16666667  0.00000000  0.00000000       0.111
   0.33333333  0.00000000  0.00000000       0.111
   0.50000000  0.00000000  0.00000000       0.056
   0.16666667  0.16666667  0.00000000       0.111
   0.33333333  0.16666667  0.00000000       0.222
   0.50000000  0.16666667  0.00000000       0.111
   0.33333333  0.33333333  0.00000000       0.111
   0.50000000  0.33333333  0.00000000       0.111
   0.50000000  0.50000000  0.00000000       0.028
 
 position of ions in fractional coordinates (direct lattice) 
   0.50000000  0.50000000  0.40287200
   0.00000000  0.00000000  0.26379500
   0.00000000  0.00000000  0.31953800
   0.50000000  0.50000000  0.34712800
   0.50000000  0.50000000  0.56953800
   0.00000000  0.00000000  0.43046200
   0.00000000  0.00000000  0.48620500
   0.50000000  0.50000000  0.51379500
   0.50000000  0.50000000  0.73620500
   0.00000000  0.00000000  0.59712800
   0.00000000  0.00000000  0.65287200
   0.50000000  0.50000000  0.68046200
   0.50000000  0.50000000  0.27831500
   0.00000000  0.00000000  0.38835200
   0.00000000  0.00000000  0.36164800
   0.50000000  0.50000000  0.30501900
   0.50000000  0.50000000  0.44498100
   0.00000000  0.00000000  0.55501900
   0.00000000  0.00000000  0.52831500
   0.50000000  0.50000000  0.47168500
   0.50000000  0.50000000  0.61164800
   0.00000000  0.00000000  0.72168500
   0.00000000  0.00000000  0.69498100
   0.50000000  0.50000000  0.63835200
   0.50000000  0.50000000  0.25736800
   0.00000000  0.00000000  0.40929900
   0.00000000  0.00000000  0.34070100
   0.50000000  0.50000000  0.32596500
   0.50000000  0.50000000  0.42403500
   0.00000000  0.00000000  0.57596500
   0.00000000  0.00000000  0.50736800
   0.50000000  0.50000000  0.49263200
   0.50000000  0.50000000  0.59070100
   0.00000000  0.00000000  0.74263200
   0.00000000  0.00000000  0.67403500
   0.50000000  0.50000000  0.65929900
   0.00000000  0.00000000  0.37500000
   0.00000000  0.50000000  0.27481300
   0.00000000  0.50000000  0.39185400
   0.50000000  0.00000000  0.27481300
   0.50000000  0.00000000  0.39185400
   0.50000000  0.50000000  0.29166700
   0.50000000  0.00000000  0.35814600
   0.50000000  0.00000000  0.30852100
   0.00000000  0.50000000  0.35814600
   0.00000000  0.50000000  0.30852100
   0.00000000  0.00000000  0.54166700
   0.00000000  0.50000000  0.44147900
   0.00000000  0.50000000  0.55852100
   0.50000000  0.00000000  0.44147900
   0.50000000  0.00000000  0.55852100
   0.50000000  0.50000000  0.45833300
   0.50000000  0.00000000  0.52481300
   0.50000000  0.00000000  0.47518700
   0.00000000  0.50000000  0.52481300
   0.00000000  0.50000000  0.47518700
   0.00000000  0.00000000  0.70833300
   0.00000000  0.50000000  0.60814600
   0.00000000  0.50000000  0.72518700
   0.50000000  0.00000000  0.60814600
   0.50000000  0.00000000  0.72518700
   0.50000000  0.50000000  0.62500000
   0.50000000  0.00000000  0.69147900
   0.50000000  0.00000000  0.64185400
   0.00000000  0.50000000  0.69147900
   0.00000000  0.50000000  0.64185400
 
 position of ions in cartesian coordinates  (Angst):
   1.88501150  1.88501150 54.87965934
   0.00000000  0.00000000 35.93444006
   0.00000000  0.00000000 43.52781178
   1.88501150  1.88501150 47.28615141
   1.88501150  1.88501150 77.58308203
   0.00000000  0.00000000 58.63799897
   0.00000000  0.00000000 66.23137069
   1.88501150  1.88501150 69.98971031
   1.88501150  1.88501150100.28664094
   0.00000000  0.00000000 81.34142166
   0.00000000  0.00000000 88.93492959
   1.88501150  1.88501150 92.69326922
   1.88501150  1.88501150 37.91237016
   0.00000000  0.00000000 52.90172925
   0.00000000  0.00000000 49.26408150
   1.88501150  1.88501150 41.55001791
   1.88501150  1.88501150 60.61579284
   0.00000000  0.00000000 75.60528816
   0.00000000  0.00000000 71.96764041
   1.88501150  1.88501150 64.25344059
   1.88501150  1.88501150 83.31935175
   0.00000000  0.00000000 98.30871084
   0.00000000  0.00000000 94.67106309
   1.88501150  1.88501150 86.95699950
   1.88501150  1.88501150 35.05894717
   0.00000000  0.00000000 55.75515223
   0.00000000  0.00000000 46.41065852
   1.88501150  1.88501150 44.40330467
   1.88501150  1.88501150 57.76250608
   0.00000000  0.00000000 78.45857492
   0.00000000  0.00000000 69.11421742
   1.88501150  1.88501150 67.10686358
   1.88501150  1.88501150 80.46592877
   0.00000000  0.00000000101.16213383
   0.00000000  0.00000000 91.81777633
   1.88501150  1.88501150 89.81042248
   0.00000000  0.00000000 51.08290537
   0.00000000  1.88501150 37.43532393
   0.00000000  1.88501150 53.37877547
   1.88501150  0.00000000 37.43532393
   1.88501150  0.00000000 53.37877547
   1.88501150  1.88501150 39.73119403
   1.88501150  0.00000000 48.78703528
   1.88501150  0.00000000 42.02706413
   0.00000000  1.88501150 48.78703528
   0.00000000  1.88501150 42.02706413
   0.00000000  0.00000000 73.78646428
   0.00000000  1.88501150 60.13874662
   0.00000000  1.88501150 76.08233438
   1.88501150  0.00000000 60.13874662
   1.88501150  0.00000000 76.08233438
   1.88501150  1.88501150 62.43461672
   1.88501150  0.00000000 71.49059418
   1.88501150  0.00000000 64.73048682
   0.00000000  1.88501150 71.49059418
   0.00000000  1.88501150 64.73048682
   0.00000000  0.00000000 96.48988697
   0.00000000  1.88501150 82.84230553
   0.00000000  1.88501150 98.78575707
   1.88501150  0.00000000 82.84230553
   1.88501150  0.00000000 98.78575707
   1.88501150  1.88501150 85.13817563
   1.88501150  0.00000000 94.19401687
   1.88501150  0.00000000 87.43404572
   0.00000000  1.88501150 94.19401687
   0.00000000  1.88501150 87.43404572
 


--------------------------------------------------------------------------------------------------------


 k-point  1 :   0.0000 0.0000 0.0000  plane waves:   51567
 k-point  2 :   0.1667 0.0000 0.0000  plane waves:   51812
 k-point  3 :   0.3333 0.0000 0.0000  plane waves:   51974
 k-point  4 :   0.5000 0.0000 0.0000  plane waves:   52174
 k-point  5 :   0.1667 0.1667 0.0000  plane waves:   52034
 k-point  6 :   0.3333 0.1667 0.0000  plane waves:   52148
 k-point  7 :   0.5000 0.1667 0.0000  plane waves:   52320
 k-point  8 :   0.3333 0.3333 0.0000  plane waves:   52284
 k-point  9 :   0.5000 0.3333 0.0000  plane waves:   52292
 k-point 10 :   0.5000 0.5000 0.0000  plane waves:   52244

 maximum and minimum number of plane-waves per node :      6604     6413

 maximum number of plane-waves:     52320
 maximum index in each direction: 
   IXMAX=    7   IYMAX=    7   IZMAX=  253
   IXMIN=   -7   IYMIN=   -7   IZMIN= -253


 real space projection operators:
  total allocation   :      34931.12 KBytes
  max/ min on nodes  :       4946.88       3770.28


 parallel 3D FFT for wavefunctions:
    minimum data exchange during FFTs selected (reduces bandwidth)
 parallel 3D FFT for charge:
    minimum data exchange during FFTs selected (reduces bandwidth)


 total amount of memory used by VASP MPI-rank0    83524. kBytes
=======================================================================

   base      :      30000. kBytes
   nonlr-proj:      15352. kBytes
   fftplans  :       6815. kBytes
   grid      :      12853. kBytes
   one-center:        270. kBytes
   wavefun   :      18234. kBytes
 
     INWAV:  cpu time    0.0000: real time    0.0000
 Broyden mixing: mesh for mixing (old mesh)
   NGX = 15   NGY = 15   NGZ =507
  (NGX  = 56   NGY  = 56   NGZ  =***)
  gives a total of 114075 points

 initial charge density was supplied:
 charge density of overlapping atoms calculated
 number of electron     432.0000000 magnetization 
 keeping initial charge density in first step


--------------------------------------------------------------------------------------------------------


 Maximum index for non-local projection operator         1226
 Maximum index for augmentation-charges         1142 (set IRDMAX)


--------------------------------------------------------------------------------------------------------


 First call to EWALD:  gamma=   0.142
 Maximum number of real-space cells 8x 8x 1
 Maximum number of reciprocal cells 1x 1x25

    FEWALD:  cpu time    0.0087: real time    0.0099


--------------------------------------- Iteration      1(   1)  ---------------------------------------


    POTLOK:  cpu time    0.1613: real time    0.1756
    SETDIJ:  cpu time    0.4653: real time    0.4729
     EDDAV:  cpu time   18.7209: real time   19.6927
       DOS:  cpu time    0.0017: real time    0.0021
    --------------------------------------------
      LOOP:  cpu time   19.3493: real time   20.3433

 eigenvalue-minimisations  :  5600
 total energy-change (2. order) : 0.4724132E+04  (-0.1874021E+05)
 number of electron     432.0000000 magnetization 
 augmentation part      432.0000000 magnetization 

 Free energy of the ion-electron system (eV)
  ---------------------------------------------------
  alpha Z        PSCENC =      1008.59231378
  Ewald energy   TEWEN  =   3353632.51753589
  -Hartree energ DENC   =  -3380706.51783211
  -exchange      EXHF   =         0.00000000
  -V(xc)+E(xc)   XCENC  =      1068.33368962
  PAW double counting   =     24113.25477224   -23468.81460646
  entropy T*S    EENTRO =        -0.00701988
  eigenvalues    EBANDS =      -843.76795664
  atomic energy  EATOM  =     29920.54117810
  Solvation  Ediel_sol  =         0.00000000
  ---------------------------------------------------
  free energy    TOTEN  =      4724.13207454 eV

  energy without entropy =     4724.13909441  energy(sigma->0) =     4724.13558447


--------------------------------------------------------------------------------------------------------




--------------------------------------- Iteration      1(   2)  ---------------------------------------


     EDDAV:  cpu time   21.1321: real time   21.9421
       DOS:  cpu time    0.0017: real time    0.0043
    --------------------------------------------
      LOOP:  cpu time   21.1338: real time   21.9465

 eigenvalue-minimisations  :  6336
 total energy-change (2. order) :-0.4360069E+04  (-0.4109325E+04)
 number of electron     432.0000000 magnetization 
 augmentation part      432.0000000 magnetization 

 Free energy of the ion-electron system (eV)
  ---------------------------------------------------
  alpha Z        PSCENC =      1008.59231378
  Ewald energy   TEWEN  =   3353632.51753589
  -Hartree energ DENC   =  -3380706.51783211
  -exchange      EXHF   =         0.00000000
  -V(xc)+E(xc)   XCENC  =      1068.33368962
  PAW double counting   =     24113.25477224   -23468.81460646
  entropy T*S    EENTRO =        -0.00131752
  eigenvalues    EBANDS =     -5203.84219313
  atomic energy  EATOM  =     29920.54117810
  Solvation  Ediel_sol  =         0.00000000
  ---------------------------------------------------
  free energy    TOTEN  =       364.06354040 eV

  energy without entropy =      364.06485792  energy(sigma->0) =      364.06419916


--------------------------------------------------------------------------------------------------------




--------------------------------------- Iteration      1(   3)  ---------------------------------------


     EDDAV:  cpu time   22.8900: real time   23.3924
       DOS:  cpu time    0.0025: real time    0.0030
    --------------------------------------------
      LOOP:  cpu time   22.8926: real time   23.3954

 eigenvalue-minimisations  :  7312
 total energy-change (2. order) :-0.1005449E+04  (-0.9900483E+03)
 number of electron     432.0000000 magnetization 
 augmentation part      432.0000000 magnetization 

 Free energy of the ion-electron system (eV)
  ---------------------------------------------------
  alpha Z        PSCENC =      1008.59231378
  Ewald energy   TEWEN  =   3353632.51753589
  -Hartree energ DENC   =  -3380706.51783211
  -exchange      EXHF   =         0.00000000
  -V(xc)+E(xc)   XCENC  =      1068.33368962
  PAW double counting   =     24113.25477224   -23468.81460646
  entropy T*S    EENTRO =        -0.00000000
  eigenvalues    EBANDS =     -6209.29298170
  atomic energy  EATOM  =     29920.54117810
  Solvation  Ediel_sol  =         0.00000000
  ---------------------------------------------------
  free energy    TOTEN  =      -641.38593065 eV

  energy without entropy =     -641.38593065  energy(sigma->0) =     -641.38593065


--------------------------------------------------------------------------------------------------------




--------------------------------------- Iteration      1(   4)  ---------------------------------------


     EDDAV:  cpu time   21.6298: real time   21.9662
       DOS:  cpu time    0.0060: real time    0.0063
    --------------------------------------------
      LOOP:  cpu time   21.6358: real time   21.9726

 eigenvalue-minimisations  :  7040
 total energy-change (2. order) :-0.6123007E+02  (-0.6095665E+02)
 number of electron     432.0000000 magnetization 
 augmentation part      432.0000000 magnetization 

 Free energy of the ion-electron system (eV)
  ---------------------------------------------------
  alpha Z        PSCENC =      1008.59231378
  Ewald energy   TEWEN  =   3353632.51753589
  -Hartree energ DENC   =  -3380706.51783211
  -exchange      EXHF   =         0.00000000
  -V(xc)+E(xc)   XCENC  =      1068.33368962
  PAW double counting   =     24113.25477224   -23468.81460646
  entropy T*S    EENTRO =        -0.00000000
  eigenvalues    EBANDS =     -6270.52305058
  atomic energy  EATOM  =     29920.54117810
  Solvation  Ediel_sol  =         0.00000000
  ---------------------------------------------------
  free energy    TOTEN  =      -702.61599953 eV

  energy without entropy =     -702.61599953  energy(sigma->0) =     -702.61599953


--------------------------------------------------------------------------------------------------------




--------------------------------------- Iteration      1(   5)  ---------------------------------------


     EDDAV:  cpu time   27.0783: real time   27.8969
       DOS:  cpu time    0.0015: real time    0.0019
    CHARGE:  cpu time    0.5874: real time    0.5876
    MIXING:  cpu time    0.0160: real time    0.0161
    --------------------------------------------
      LOOP:  cpu time   27.6832: real time   28.5026

 eigenvalue-minimisations  : 10064
 total energy-change (2. order) :-0.6078233E+01  (-0.6073833E+01)
 number of electron     431.9999734 magnetization 
 augmentation part       44.9945976 magnetization 

 Broyden mixing:
  rms(total) = 0.14934E+02    rms(broyden)= 0.14934E+02
  rms(prec ) = 0.14940E+02
  weight for this iteration     100.00

 Free energy of the ion-electron system (eV)
  ---------------------------------------------------
  alpha Z        PSCENC =      1008.59231378
  Ewald energy   TEWEN  =   3353632.51753589
  -Hartree energ DENC   =  -3380706.51783211
  -exchange      EXHF   =         0.00000000
  -V(xc)+E(xc)   XCENC  =      1068.33368962
  PAW double counting   =     24113.25477224   -23468.81460646
  entropy T*S    EENTRO =        -0.00000000
  eigenvalues    EBANDS =     -6276.60128315
  atomic energy  EATOM  =     29920.54117810
  Solvation  Ediel_sol  =         0.00000000
  ---------------------------------------------------
  free energy    TOTEN  =      -708.69423209 eV

  energy without entropy =     -708.69423209  energy(sigma->0) =     -708.69423209


--------------------------------------------------------------------------------------------------------




--------------------------------------- Iteration      1(   6)  ---------------------------------------


    POTLOK:  cpu time    0.1800: real time    0.1816
    SETDIJ:  cpu time    0.4045: real time    0.4047
     EDDAV:  cpu time   21.3151: real time   22.7526
       DOS:  cpu time    0.0017: real time    0.0021
    CHARGE:  cpu time    0.6744: real time    0.6749
    MIXING:  cpu time    0.0099: real time    0.0099
    --------------------------------------------
      LOOP:  cpu time   22.5855: real time   24.0257

 eigenvalue-minimisations  :  7728
 total energy-change (2. order) : 0.1247626E+03  (-0.7186238E+02)
 number of electron     431.9999810 magnetization 
 augmentation part       49.9305514 magnetization 

 Broyden mixing:
  rms(total) = 0.91370E+01    rms(broyden)= 0.91365E+01
  rms(prec ) = 0.91379E+01
  weight for this iteration     100.00

 eigenvalues of (default mixing * dielectric matrix)
  average eigenvalue GAMMA=   1.1033
  1.1033

 Free energy of the ion-electron system (eV)
  ---------------------------------------------------
  alpha Z        PSCENC =      1008.59231378
  Ewald energy   TEWEN  =   3353632.51753589
  -Hartree energ DENC   =  -3381317.31735706
  -exchange      EXHF   =         0.00000000
  -V(xc)+E(xc)   XCENC  =      1119.77406194
  PAW double counting   =     32948.46527894   -32337.11333567
  entropy T*S    EENTRO =        -0.00000000
  eigenvalues    EBANDS =     -5559.39129926
  atomic energy  EATOM  =     29920.54117810
  Solvation  Ediel_sol  =         0.00000000
  ---------------------------------------------------
  free energy    TOTEN  =      -583.93162334 eV

  energy without entropy =     -583.93162334  energy(sigma->0) =     -583.93162334


--------------------------------------------------------------------------------------------------------




--------------------------------------- Iteration      1(   7)  ---------------------------------------


    POTLOK:  cpu time    0.2534: real time    0.2566
    SETDIJ:  cpu time    0.3373: real time    0.3938
     EDDAV:  cpu time   21.8262: real time   22.4679
       DOS:  cpu time    0.0024: real time    0.0028
    CHARGE:  cpu time    0.7862: real time    0.7866
    MIXING:  cpu time    0.0106: real time    0.0106
    --------------------------------------------
      LOOP:  cpu time   23.2161: real time   23.9183

 eigenvalue-minimisations  :  7696
 total energy-change (2. order) :-0.7052618E+01  (-0.2246144E+02)
 number of electron     431.9999782 magnetization 
 augmentation part       43.8647925 magnetization 

 Broyden mixing:
  rms(total) = 0.68879E+01    rms(broyden)= 0.68878E+01
  rms(prec ) = 0.68890E+01
  weight for this iteration     100.00

 eigenvalues of (default mixing * dielectric matrix)
  average eigenvalue GAMMA=   1.9564
  0.7185  3.1942

 Free energy of the ion-electron system (eV)
  ---------------------------------------------------
  alpha Z        PSCENC =      1008.59231378
  Ewald energy   TEWEN  =   3353632.51753589
  -Hartree energ DENC   =  -3381148.75278889
  -exchange      EXHF   =         0.00000000
  -V(xc)+E(xc)   XCENC  =      1100.38475086
  PAW double counting   =     39660.08858948   -39067.88898956
  entropy T*S    EENTRO =        -0.00000000
  eigenvalues    EBANDS =     -5696.46683089
  atomic energy  EATOM  =     29920.54117810
  Solvation  Ediel_sol  =         0.00000000
  ---------------------------------------------------
  free energy    TOTEN  =      -590.98424124 eV

  energy without entropy =     -590.98424124  energy(sigma->0) =     -590.98424124


--------------------------------------------------------------------------------------------------------




--------------------------------------- Iteration      1(   8)  ---------------------------------------


    POTLOK:  cpu time    0.1777: real time    0.1824
    SETDIJ:  cpu time    0.4135: real time    0.4369
     EDDAV:  cpu time   25.6563: real time   26.1857
       DOS:  cpu time    0.0017: real time    0.0024
    CHARGE:  cpu time    0.7519: real time    0.7520
    MIXING:  cpu time    0.0112: real time    0.0112
    --------------------------------------------
      LOOP:  cpu time   27.0123: real time   27.5706

 eigenvalue-minimisations  :  7696
 total energy-change (2. order) : 0.4722337E+01  (-0.7967442E+01)
 number of electron     431.9999798 magnetization 
 augmentation part       49.7393812 magnetization 

 Broyden mixing:
  rms(total) = 0.33732E+01    rms(broyden)= 0.33731E+01
  rms(prec ) = 0.33755E+01
  weight for this iteration     100.00

 eigenvalues of (default mixing * dielectric matrix)
  average eigenvalue GAMMA=   1.3676
  2.3572  1.1304  0.6151

 Free energy of the ion-electron system (eV)
  ---------------------------------------------------
  alpha Z        PSCENC =      1008.59231378
  Ewald energy   TEWEN  =   3353632.51753589
  -Hartree energ DENC   =  -3381261.95551605
  -exchange      EXHF   =         0.00000000
  -V(xc)+E(xc)   XCENC  =      1109.50845494
  PAW double counting   =     55652.80468832   -55067.30558941
  entropy T*S    EENTRO =        -0.00138030
  eigenvalues    EBANDS =     -5580.96358978
  atomic energy  EATOM  =     29920.54117810
  Solvation  Ediel_sol  =         0.00000000
  ---------------------------------------------------
  free energy    TOTEN  =      -586.26190452 eV

  energy without entropy =     -586.26052421  energy(sigma->0) =     -586.26121436


--------------------------------------------------------------------------------------------------------




--------------------------------------- Iteration      1(   9)  ---------------------------------------


    POTLOK:  cpu time    0.2025: real time    0.2059
    SETDIJ:  cpu time    0.4405: real time    0.4406
     EDDAV:  cpu time   26.5547: real time   27.5931
       DOS:  cpu time    0.0013: real time    0.0017
    CHARGE:  cpu time    0.7104: real time    0.7106
    MIXING:  cpu time    0.0170: real time    0.0170
    --------------------------------------------
      LOOP:  cpu time   27.9263: real time   28.9689

 eigenvalue-minimisations  :  7504
 total energy-change (2. order) : 0.3873821E+01  (-0.3371719E+01)
 number of electron     431.9999787 magnetization 
 augmentation part       45.1792451 magnetization 

 Broyden mixing:
  rms(total) = 0.66723E+00    rms(broyden)= 0.66716E+00
  rms(prec ) = 0.66790E+00
  weight for this iteration     100.00

 eigenvalues of (default mixing * dielectric matrix)
  average eigenvalue GAMMA=   1.3563
  2.5716  1.1875  1.0755  0.5905

 Free energy of the ion-electron system (eV)
  ---------------------------------------------------
  alpha Z        PSCENC =      1008.59231378
  Ewald energy   TEWEN  =   3353632.51753589
  -Hartree energ DENC   =  -3381214.38170333
  -exchange      EXHF   =         0.00000000
  -V(xc)+E(xc)   XCENC  =      1105.39136804
  PAW double counting   =     50215.18863881   -49623.13389521
  entropy T*S    EENTRO =        -0.00000000
  eigenvalues    EBANDS =     -5627.10351998
  atomic energy  EATOM  =     29920.54117810
  Solvation  Ediel_sol  =         0.00000000
  ---------------------------------------------------
  free energy    TOTEN  =      -582.38808391 eV

  energy without entropy =     -582.38808391  energy(sigma->0) =     -582.38808391


--------------------------------------------------------------------------------------------------------




--------------------------------------- Iteration      1(  10)  ---------------------------------------


    POTLOK:  cpu time    0.1951: real time    0.1992
    SETDIJ:  cpu time    0.4296: real time    0.4300
     EDDAV:  cpu time   21.8938: real time   23.0164
       DOS:  cpu time    0.0033: real time    0.0040
    CHARGE:  cpu time    0.7083: real time    0.7093
    MIXING:  cpu time    0.0051: real time    0.0051
    --------------------------------------------
      LOOP:  cpu time   23.2352: real time   24.3640

 eigenvalue-minimisations  :  7856
 total energy-change (2. order) : 0.2301174E+00  (-0.3642626E+00)
 number of electron     431.9999790 magnetization 
 augmentation part       45.7821761 magnetization 

 Broyden mixing:
  rms(total) = 0.42337E+00    rms(broyden)= 0.42336E+00
  rms(prec ) = 0.42352E+00
  weight for this iteration     100.00

 eigenvalues of (default mixing * dielectric matrix)
  average eigenvalue GAMMA=   1.2484
  1.9601  1.9601  0.8715  0.8715  0.5787

 Free energy of the ion-electron system (eV)
  ---------------------------------------------------
  alpha Z        PSCENC =      1008.59231378
  Ewald energy   TEWEN  =   3353632.51753589
  -Hartree energ DENC   =  -3381292.92976053
  -exchange      EXHF   =         0.00000000
  -V(xc)+E(xc)   XCENC  =      1108.52935160
  PAW double counting   =     50835.64258810   -50236.15211740
  entropy T*S    EENTRO =        -0.00000000
  eigenvalues    EBANDS =     -5558.89905605
  atomic energy  EATOM  =     29920.54117810
  Solvation  Ediel_sol  =         0.00000000
  ---------------------------------------------------
  free energy    TOTEN  =      -582.15796652 eV

  energy without entropy =     -582.15796652  energy(sigma->0) =     -582.15796652


--------------------------------------------------------------------------------------------------------




--------------------------------------- Iteration      1(  11)  ---------------------------------------


    POTLOK:  cpu time    0.2139: real time    0.2156
    SETDIJ:  cpu time    0.4318: real time    0.4320
     EDDAV:  cpu time   23.8518: real time   24.0148
       DOS:  cpu time    0.0013: real time    0.0017
    CHARGE:  cpu time    0.5330: real time    0.5330
    MIXING:  cpu time    0.0052: real time    0.0052
    --------------------------------------------
      LOOP:  cpu time   25.0370: real time   25.2023

 eigenvalue-minimisations  :  7488
 total energy-change (2. order) : 0.1965575E-01  (-0.4714792E-01)
 number of electron     431.9999790 magnetization 
 augmentation part       45.5692503 magnetization 

 Broyden mixing:
  rms(total) = 0.12283E+00    rms(broyden)= 0.12282E+00
  rms(prec ) = 0.12301E+00
  weight for this iteration     100.00

 eigenvalues of (default mixing * dielectric matrix)
  average eigenvalue GAMMA=   1.2848
  2.2461  1.7590  1.1419  1.1419  0.8421  0.5776

 Free energy of the ion-electron system (eV)
  ---------------------------------------------------
  alpha Z        PSCENC =      1008.59231378
  Ewald energy   TEWEN  =   3353632.51753589
  -Hartree energ DENC   =  -3381320.07864623
  -exchange      EXHF   =         0.00000000
  -V(xc)+E(xc)   XCENC  =      1108.39887683
  PAW double counting   =     50131.49193401   -49528.58946555
  entropy T*S    EENTRO =        -0.00000000
  eigenvalues    EBANDS =     -5535.01203759
  atomic energy  EATOM  =     29920.54117810
  Solvation  Ediel_sol  =         0.00000000
  ---------------------------------------------------
  free energy    TOTEN  =      -582.13831077 eV

  energy without entropy =     -582.13831077  energy(sigma->0) =     -582.13831077


--------------------------------------------------------------------------------------------------------




--------------------------------------- Iteration      1(  12)  ---------------------------------------


    POTLOK:  cpu time    0.1184: real time    0.1220
    SETDIJ:  cpu time    0.4324: real time    0.4327
     EDDAV:  cpu time   21.7062: real time   23.0347
       DOS:  cpu time    0.0028: real time    0.0035
    CHARGE:  cpu time    0.7596: real time    0.7598
    MIXING:  cpu time    0.0576: real time    0.0576
    --------------------------------------------
      LOOP:  cpu time   23.0770: real time   24.4102

 eigenvalue-minimisations  :  7328
 total energy-change (2. order) : 0.3496294E-02  (-0.1351288E-01)
 number of electron     431.9999789 magnetization 
 augmentation part       45.6545588 magnetization 

 Broyden mixing:
  rms(total) = 0.62475E-01    rms(broyden)= 0.62465E-01
  rms(prec ) = 0.62596E-01
  weight for this iteration     100.00

 eigenvalues of (default mixing * dielectric matrix)
  average eigenvalue GAMMA=   1.3060
  2.2164  2.2164  1.5121  0.9129  0.9129  0.5763  0.7947

 Free energy of the ion-electron system (eV)
  ---------------------------------------------------
  alpha Z        PSCENC =      1008.59231378
  Ewald energy   TEWEN  =   3353632.51753589
  -Hartree energ DENC   =  -3381355.58901360
  -exchange      EXHF   =         0.00000000
  -V(xc)+E(xc)   XCENC  =      1108.41277849
  PAW double counting   =     50305.14232980   -49698.75430491
  entropy T*S    EENTRO =        -0.00000000
  eigenvalues    EBANDS =     -5502.99763203
  atomic energy  EATOM  =     29920.54117810
  Solvation  Ediel_sol  =         0.00000000
  ---------------------------------------------------
  free energy    TOTEN  =      -582.13481448 eV

  energy without entropy =     -582.13481448  energy(sigma->0) =     -582.13481448


--------------------------------------------------------------------------------------------------------




--------------------------------------- Iteration      1(  13)  ---------------------------------------


    POTLOK:  cpu time    0.2640: real time    0.2664
    SETDIJ:  cpu time    0.4230: real time    0.4230
     EDDAV:  cpu time   26.6142: real time   26.8259
       DOS:  cpu time    0.0014: real time    0.0018
    CHARGE:  cpu time    0.7411: real time    0.7415
    MIXING:  cpu time    0.0100: real time    0.0100
    --------------------------------------------
      LOOP:  cpu time   28.0537: real time   28.2685

 eigenvalue-minimisations  :  7920
 total energy-change (2. order) : 0.7662717E-03  (-0.2849693E-02)
 number of electron     431.9999790 magnetization 
 augmentation part       45.7195805 magnetization 

 Broyden mixing:
  rms(total) = 0.39051E-01    rms(broyden)= 0.39049E-01
  rms(prec ) = 0.39174E-01
  weight for this iteration     100.00

 eigenvalues of (default mixing * dielectric matrix)
  average eigenvalue GAMMA=   1.2584
  2.3108  2.3108  1.4283  0.9230  0.9230  0.5810  0.7950  0.7950

 Free energy of the ion-electron system (eV)
  ---------------------------------------------------
  alpha Z        PSCENC =      1008.59231378
  Ewald energy   TEWEN  =   3353632.51753589
  -Hartree energ DENC   =  -3381387.77736998
  -exchange      EXHF   =         0.00000000
  -V(xc)+E(xc)   XCENC  =      1108.75990461
  PAW double counting   =     50307.31997519   -49699.15783922
  entropy T*S    EENTRO =        -0.00000000
  eigenvalues    EBANDS =     -5472.92974657
  atomic energy  EATOM  =     29920.54117810
  Solvation  Ediel_sol  =         0.00000000
  ---------------------------------------------------
  free energy    TOTEN  =      -582.13404821 eV

  energy without entropy =     -582.13404821  energy(sigma->0) =     -582.13404821


--------------------------------------------------------------------------------------------------------




--------------------------------------- Iteration      1(  14)  ---------------------------------------


    POTLOK:  cpu time    0.1683: real time    0.1701
    SETDIJ:  cpu time    0.4263: real time    0.4263
     EDDAV:  cpu time   24.6976: real time   25.7092
       DOS:  cpu time    0.0018: real time    0.0022
    CHARGE:  cpu time    0.8614: real time    0.8616
    MIXING:  cpu time    0.0043: real time    0.0042
    --------------------------------------------
      LOOP:  cpu time   26.1596: real time   27.1737

 eigenvalue-minimisations  :  7616
 total energy-change (2. order) : 0.8109873E-03  (-0.7475803E-03)
 number of electron     431.9999790 magnetization 
 augmentation part       45.7023536 magnetization 

 Broyden mixing:
  rms(total) = 0.19473E-01    rms(broyden)= 0.19473E-01
  rms(prec ) = 0.19620E-01
  weight for this iteration     100.00

 eigenvalues of (default mixing * dielectric matrix)
  average eigenvalue GAMMA=   1.2619
  2.3518  1.9812  1.9812  0.9857  0.9857  1.0162  0.8356  0.5797  0.6405

 Free energy of the ion-electron system (eV)
  ---------------------------------------------------
  alpha Z        PSCENC =      1008.59231378
  Ewald energy   TEWEN  =   3353632.51753589
  -Hartree energ DENC   =  -3381400.75065961
  -exchange      EXHF   =         0.00000000
  -V(xc)+E(xc)   XCENC  =      1108.75880606
  PAW double counting   =     50326.01179815   -49717.52808126
  entropy T*S    EENTRO =        -0.00000000
  eigenvalues    EBANDS =     -5460.27612832
  atomic energy  EATOM  =     29920.54117810
  Solvation  Ediel_sol  =         0.00000000
  ---------------------------------------------------
  free energy    TOTEN  =      -582.13323722 eV

  energy without entropy =     -582.13323722  energy(sigma->0) =     -582.13323722


--------------------------------------------------------------------------------------------------------




--------------------------------------- Iteration      1(  15)  ---------------------------------------


    POTLOK:  cpu time    0.1510: real time    0.1551
    SETDIJ:  cpu time    0.4392: real time    0.4392
     EDDAV:  cpu time   20.9772: real time   22.3933
       DOS:  cpu time    0.0013: real time    0.0019
    CHARGE:  cpu time    0.5922: real time    0.6168
    MIXING:  cpu time    0.0092: real time    0.0092
    --------------------------------------------
      LOOP:  cpu time   22.1702: real time   23.6156

 eigenvalue-minimisations  :  7440
 total energy-change (2. order) : 0.2235771E-03  (-0.2575675E-03)
 number of electron     431.9999789 magnetization 
 augmentation part       45.6852158 magnetization 

 Broyden mixing:
  rms(total) = 0.14509E-01    rms(broyden)= 0.14508E-01
  rms(prec ) = 0.14651E-01
  weight for this iteration     100.00

 eigenvalues of (default mixing * dielectric matrix)
  average eigenvalue GAMMA=   1.2493
  2.3399  2.1394  2.1394  1.0876  1.0876  0.8612  0.8612  0.8095  0.5790  0.5881

 Free energy of the ion-electron system (eV)
  ---------------------------------------------------
  alpha Z        PSCENC =      1008.59231378
  Ewald energy   TEWEN  =   3353632.51753589
  -Hartree energ DENC   =  -3381412.77600280
  -exchange      EXHF   =         0.00000000
  -V(xc)+E(xc)   XCENC  =      1108.70990523
  PAW double counting   =     50353.13992061   -49744.77861517
  entropy T*S    EENTRO =        -0.00000000
  eigenvalues    EBANDS =     -5448.07924927
  atomic energy  EATOM  =     29920.54117810
  Solvation  Ediel_sol  =         0.00000000
  ---------------------------------------------------
  free energy    TOTEN  =      -582.13301364 eV

  energy without entropy =     -582.13301364  energy(sigma->0) =     -582.13301364


--------------------------------------------------------------------------------------------------------




--------------------------------------- Iteration      1(  16)  ---------------------------------------


    POTLOK:  cpu time    0.2406: real time    0.2430
    SETDIJ:  cpu time    0.3451: real time    0.3453
     EDDAV:  cpu time   23.1918: real time   23.4164
       DOS:  cpu time    0.0014: real time    0.0018
    CHARGE:  cpu time    0.7363: real time    0.7364
    MIXING:  cpu time    0.0188: real time    0.0188
    --------------------------------------------
      LOOP:  cpu time   24.5340: real time   24.7617

 eigenvalue-minimisations  :  7632
 total energy-change (2. order) : 0.1995183E-03  (-0.8284212E-04)
 number of electron     431.9999789 magnetization 
 augmentation part       45.6928958 magnetization 

 Broyden mixing:
  rms(total) = 0.64640E-02    rms(broyden)= 0.64635E-02
  rms(prec ) = 0.67088E-02
  weight for this iteration     100.00

 eigenvalues of (default mixing * dielectric matrix)
  average eigenvalue GAMMA=   1.3013
  2.6649  2.2713  1.7453  1.7453  1.0793  1.0793  0.8881  0.8358  0.8358  0.5754
  0.5939

 Free energy of the ion-electron system (eV)
  ---------------------------------------------------
  alpha Z        PSCENC =      1008.59231378
  Ewald energy   TEWEN  =   3353632.51753589
  -Hartree energ DENC   =  -3381422.50244695
  -exchange      EXHF   =         0.00000000
  -V(xc)+E(xc)   XCENC  =      1108.75166431
  PAW double counting   =     50350.65724326   -49742.29425407
  entropy T*S    EENTRO =        -0.00000000
  eigenvalues    EBANDS =     -5438.39604844
  atomic energy  EATOM  =     29920.54117810
  Solvation  Ediel_sol  =         0.00000000
  ---------------------------------------------------
  free energy    TOTEN  =      -582.13281412 eV

  energy without entropy =     -582.13281412  energy(sigma->0) =     -582.13281412


--------------------------------------------------------------------------------------------------------




--------------------------------------- Iteration      1(  17)  ---------------------------------------


    POTLOK:  cpu time    0.2248: real time    0.2488
    SETDIJ:  cpu time    0.5017: real time    0.5506
     EDDAV:  cpu time   20.2117: real time   20.3058
       DOS:  cpu time    0.0015: real time    0.0021
    CHARGE:  cpu time    0.5445: real time    0.5863
    MIXING:  cpu time    0.0099: real time    0.0099
    --------------------------------------------
      LOOP:  cpu time   21.4942: real time   21.7036

 eigenvalue-minimisations  :  6736
 total energy-change (2. order) : 0.2226484E-03  (-0.4562646E-04)
 number of electron     431.9999789 magnetization 
 augmentation part       45.6951724 magnetization 

 Broyden mixing:
  rms(total) = 0.44449E-02    rms(broyden)= 0.44447E-02
  rms(prec ) = 0.46824E-02
  weight for this iteration     100.00

[...]
   0.105E-12 -.104E-11 0.575E+04   -.366E-13 0.247E-13 -.575E+04   0.000E+00 0.103E-24 0.432E+00   -.257E-13 0.195E-13 -.977E-04
   0.609E-14 0.189E-12 0.144E+05   -.445E-13 0.186E-13 -.144E+05   0.000E+00 0.103E-24 -.253E+01   -.380E-13 -.416E-13 0.518E-04
   0.337E-14 -.229E-12 0.108E+05   0.943E-14 0.252E-13 -.108E+05   -.517E-25 0.000E+00 0.427E+00   -.227E-13 0.728E-14 -.567E-04
   0.101E-12 -.172E-11 0.938E+04   -.224E-13 0.191E-13 -.938E+04   -.620E-24 -.414E-24 -.432E+00   -.410E-13 -.217E-13 0.805E-04
   0.103E-12 -.689E-12 -.434E+04   0.525E-14 0.261E-13 0.434E+04   -.103E-24 0.000E+00 0.432E+00   -.555E-14 0.197E-13 -.188E-04
   0.227E-14 0.644E-12 0.434E+04   0.229E-13 0.210E-13 -.434E+04   0.103E-24 -.129E-25 -.432E+00   0.104E-13 -.116E-13 0.188E-04
   0.117E-14 -.215E-12 0.704E+03   -.450E-13 0.227E-13 -.705E+03   -.517E-25 0.000E+00 0.433E+00   0.246E-13 0.158E-13 -.538E-04
   0.108E-12 0.465E-12 -.704E+03   -.270E-13 0.175E-13 0.705E+03   0.517E-25 0.000E+00 -.433E+00   -.205E-13 -.214E-13 0.538E-04
   0.990E-13 -.657E-12 -.144E+05   -.445E-13 0.186E-13 0.144E+05   0.000E+00 -.905E-25 0.253E+01   0.412E-13 0.455E-13 -.518E-04
   -.290E-14 0.130E-11 -.575E+04   -.187E-13 0.195E-13 0.575E+04   0.000E+00 -.207E-24 -.432E+00   0.242E-13 -.167E-13 0.977E-04
   -.171E-14 0.182E-11 -.938E+04   -.407E-13 0.245E-13 0.938E+04   -.207E-24 0.414E-24 0.432E+00   0.389E-13 0.244E-13 -.805E-04
   0.837E-13 0.505E-12 -.108E+05   0.274E-13 0.200E-13 0.108E+05   0.258E-25 0.000E+00 -.427E+00   0.243E-13 -.719E-14 0.567E-04
   0.293E-14 -.459E-12 0.478E+04   0.410E-16 0.912E-14 -.478E+04   0.258E-25 -.517E-25 0.456E-01   -.475E-14 -.138E-13 0.191E-04
   0.587E-14 0.127E-12 0.255E+04   -.237E-15 0.887E-14 -.255E+04   -.517E-25 0.000E+00 -.438E-01   -.357E-14 0.121E-13 -.169E-04
   0.295E-14 0.611E-12 0.295E+04   0.505E-15 0.813E-14 -.295E+04   0.000E+00 0.162E-26 0.438E-01   0.382E-15 -.221E-13 0.312E-04
   0.490E-14 0.288E-12 0.438E+04   -.123E-13 0.601E-14 -.438E+04   0.517E-25 0.646E-26 -.230E-01   -.151E-14 0.604E-14 -.113E-04
   0.349E-16 -.313E-13 0.112E+04   -.120E-13 0.602E-14 -.112E+04   0.258E-25 0.517E-25 0.303E-01   -.681E-14 -.152E-13 0.141E-04
   0.884E-15 0.172E-12 -.112E+04   -.123E-13 0.621E-14 0.112E+04   -.711E-25 -.517E-25 -.303E-01   0.867E-14 0.171E-13 -.141E-04
   0.402E-14 0.953E-12 -.718E+03   0.223E-14 0.831E-14 0.718E+03   0.000E+00 -.388E-25 0.324E-01   0.591E-14 -.136E-13 0.883E-05
   0.420E-14 -.947E-12 0.718E+03   0.257E-14 0.830E-14 -.718E+03   0.000E+00 0.388E-25 -.324E-01   -.326E-14 0.964E-14 -.883E-05
   0.263E-14 -.141E-12 -.255E+04   0.182E-15 0.869E-14 0.255E+04   0.258E-25 0.000E+00 0.438E-01   0.761E-14 -.110E-13 0.169E-04
   0.252E-14 0.560E-12 -.478E+04   0.375E-16 0.912E-14 0.478E+04   -.258E-25 0.452E-25 -.456E-01   0.754E-14 0.155E-13 -.191E-04
   -.194E-14 -.134E-12 -.438E+04   -.126E-13 0.618E-14 0.438E+04   -.388E-25 0.000E+00 0.230E-01   0.416E-14 -.608E-14 0.113E-04
   0.123E-13 -.648E-12 -.295E+04   0.812E-15 0.794E-14 0.295E+04   0.000E+00 0.000E+00 -.438E-01   0.130E-14 0.204E-13 -.312E-04
   -.239E-13 -.237E-11 0.807E+04   -.136E-13 0.200E-14 -.807E+04   -.258E-25 0.000E+00 0.470E+00   -.125E-13 0.264E-13 0.249E-04
   -.156E-13 0.141E-12 0.292E+04   -.210E-13 0.308E-15 -.292E+04   0.103E-24 0.000E+00 -.445E+00   0.299E-14 0.695E-14 -.482E-04
   -.482E-14 0.604E-12 0.533E+04   -.212E-13 0.171E-15 -.533E+04   0.273E-24 0.414E-24 0.444E+00   -.457E-15 0.150E-13 0.365E-04
   -.182E-13 0.308E-12 0.567E+04   -.825E-14 -.492E-14 -.567E+04   0.258E-25 0.000E+00 -.439E+00   -.101E-13 0.611E-14 -.157E-04
   -.917E-14 0.692E-12 0.258E+04   -.784E-14 -.494E-14 -.258E+04   0.103E-24 0.000E+00 0.441E+00   -.422E-14 0.676E-14 -.796E-06
   0.100E-14 -.571E-12 -.258E+04   -.124E-13 -.310E-14 0.258E+04   -.103E-24 0.000E+00 -.441E+00   0.774E-14 -.714E-14 0.796E-06
   -.156E-13 -.210E-11 -.168E+03   -.235E-13 0.332E-14 0.167E+03   0.000E+00 0.000E+00 0.446E+00   0.248E-14 -.584E-14 0.220E-04
   -.117E-13 0.218E-11 0.168E+03   -.190E-13 0.146E-14 -.167E+03   0.000E+00 0.155E-24 -.446E+00   -.111E-14 0.783E-14 -.220E-04
   -.157E-13 -.269E-13 -.292E+04   -.165E-13 -.156E-14 0.292E+04   0.000E+00 0.000E+00 0.445E+00   -.478E-14 -.622E-14 0.482E-04
   -.227E-13 0.243E-11 -.807E+04   -.136E-13 0.200E-14 0.807E+04   0.517E-25 0.000E+00 -.470E+00   0.117E-13 -.277E-13 -.249E-04
   -.116E-13 -.411E-12 -.567E+04   -.126E-13 -.306E-14 0.567E+04   0.000E+00 0.000E+00 0.439E+00   0.805E-14 -.878E-14 0.157E-04
   -.158E-13 -.570E-12 -.533E+04   -.167E-13 -.166E-14 0.533E+04   -.103E-24 -.414E-24 -.444E+00   0.282E-14 -.167E-13 -.365E-04
   -.135E-14 0.164E-12 0.412E+04   0.236E-13 -.288E-14 -.412E+04   0.162E-26 0.129E-25 -.505E-05   -.159E-13 -.192E-13 0.264E-04
   -.232E-14 -.601E-13 0.726E+04   0.392E-14 -.295E-14 -.726E+04   0.517E-25 -.414E-24 -.159E+01   -.114E-13 0.292E-13 0.227E-04
   -.142E-13 0.226E-11 0.374E+04   -.209E-13 -.710E-14 -.374E+04   0.103E-24 0.000E+00 0.150E+01   0.101E-13 -.193E-13 -.350E-04
   0.138E-12 -.181E-11 0.726E+04   0.182E-13 -.116E-13 -.726E+04   0.000E+00 -.103E-24 -.159E+01   -.299E-13 0.748E-14 0.227E-04
   0.134E-12 0.104E-11 0.374E+04   0.421E-13 -.426E-14 -.374E+04   0.000E+00 -.207E-24 0.150E+01   -.153E-14 -.630E-14 -.350E-04
   0.133E-12 -.234E-12 0.687E+04   -.107E-13 0.861E-14 -.687E+04   0.258E-25 0.258E-25 0.162E+00   -.634E-14 -.265E-13 0.107E-04
   0.135E-12 0.954E-12 0.451E+04   0.243E-14 -.187E-14 -.451E+04   0.000E+00 -.103E-24 -.150E+01   -.584E-14 -.143E-14 0.423E-04
   0.144E-12 -.754E-13 0.649E+04   -.265E-13 -.715E-14 -.649E+04   0.000E+00 0.000E+00 0.149E+01   -.184E-13 -.267E-13 -.192E-04
   -.386E-14 0.221E-11 0.451E+04   -.315E-15 -.109E-13 -.451E+04   -.517E-25 -.103E-24 -.150E+01   0.195E-13 0.296E-13 0.423E-04
   -.458E-14 0.641E-12 0.649E+04   -.102E-13 -.873E-15 -.649E+04   -.310E-24 -.129E-25 0.149E+01   -.578E-14 -.304E-13 -.192E-04
   0.986E-14 -.125E-12 -.137E+04   -.108E-14 0.637E-14 0.137E+04   0.000E+00 0.258E-25 0.328E-02   0.187E-14 0.152E-13 -.543E-05
   0.122E-14 -.133E-11 0.176E+04   -.295E-13 0.236E-14 -.176E+04   0.103E-24 -.258E-25 -.150E+01   0.186E-13 0.268E-13 0.186E-04
   -.104E-13 0.907E-13 -.176E+04   -.204E-13 -.739E-14 0.176E+04   -.129E-25 0.000E+00 0.150E+01   0.814E-14 -.225E-13 -.186E-04
   0.140E-12 -.256E-12 0.176E+04   0.171E-13 -.581E-14 -.176E+04   0.258E-25 0.000E+00 -.150E+01   -.577E-14 0.230E-13 0.186E-04
   0.159E-12 0.188E-11 -.176E+04   -.443E-14 -.127E-14 0.176E+04   0.000E+00 0.000E+00 0.150E+01   -.146E-13 -.261E-13 -.186E-04
   0.131E-12 0.400E-12 0.137E+04   -.998E-14 0.150E-14 -.137E+04   0.000E+00 -.260E-25 -.328E-02   0.529E-14 -.110E-13 0.543E-05
   0.142E-12 0.602E-13 -.985E+03   0.155E-14 -.253E-14 0.987E+03   0.000E+00 0.000E+00 -.150E+01   -.110E-13 0.157E-13 0.165E-04
   0.130E-12 0.104E-11 0.985E+03   -.323E-13 -.792E-14 -.987E+03   0.517E-25 0.258E-25 0.150E+01   0.356E-14 -.216E-13 -.165E-04
   -.826E-14 -.136E-11 -.985E+03   -.384E-14 -.110E-13 0.987E+03   0.155E-24 0.517E-25 -.150E+01   0.292E-15 0.336E-13 0.165E-04
   -.894E-14 0.844E-12 0.985E+03   0.327E-13 -.605E-14 -.987E+03   0.000E+00 0.000E+00 0.150E+01   0.108E-13 -.253E-13 -.165E-04
   0.135E-14 0.347E-12 -.687E+04   -.158E-15 0.575E-14 0.687E+04   -.258E-25 -.517E-25 -.162E+00   0.144E-13 0.373E-13 -.107E-04
   0.143E-14 -.422E-12 -.374E+04   0.132E-13 -.230E-14 0.374E+04   0.000E+00 0.205E-24 -.150E+01   -.311E-14 0.176E-13 0.350E-04
   -.241E-14 0.185E-11 -.726E+04   -.234E-13 -.699E-14 0.726E+04   0.103E-24 0.103E-24 0.159E+01   0.342E-13 -.362E-14 -.227E-04
   0.138E-12 -.196E-11 -.374E+04   0.219E-13 -.117E-13 0.374E+04   -.103E-24 0.000E+00 -.150E+01   -.475E-14 0.152E-13 0.350E-04
   0.143E-12 0.121E-12 -.726E+04   0.348E-13 -.464E-14 0.726E+04   0.000E+00 0.414E-24 0.159E+01   0.183E-13 -.300E-13 -.227E-04
   0.168E-12 0.750E-12 -.412E+04   0.137E-13 -.160E-15 0.412E+04   0.000E+00 -.129E-25 0.505E-05   0.208E-13 0.850E-14 -.264E-04
   0.152E-12 -.158E-12 -.649E+04   -.415E-13 0.216E-14 0.649E+04   0.155E-24 0.129E-25 -.149E+01   0.446E-14 0.265E-13 0.192E-04
   0.140E-12 -.169E-11 -.451E+04   -.307E-13 -.815E-14 0.451E+04   0.103E-24 0.103E-24 0.150E+01   -.178E-13 -.303E-13 -.423E-04
   -.187E-13 -.611E-12 -.649E+04   0.417E-14 -.985E-14 0.649E+04   0.000E+00 0.000E+00 -.149E+01   0.230E-13 0.329E-13 0.192E-04
   -.459E-14 -.108E-11 -.451E+04   0.340E-13 -.484E-14 0.451E+04   0.000E+00 0.258E-25 0.150E+01   0.105E-13 0.835E-15 -.423E-04
 -----------------------------------------------------------------------------------------------
   0.255E-11 0.452E-11 0.167E-09   -.446E-12 0.227E-12 0.337E-10   -.210E-24 -.101E-27 0.222E-15   0.799E-13 0.270E-13 -.116E-09
 
 
 POSITION                                       TOTAL-FORCE (eV/Angst)
 -----------------------------------------------------------------------------------
      1.88501      1.88501     54.87966         0.000000      0.000000     -0.000488
      0.00000      0.00000     35.93444         0.000000      0.000000      0.558649
      0.00000      0.00000     43.52781         0.000000      0.000000      0.003146
      1.88501      1.88501     47.28615         0.000000     -0.000000      0.000304
      1.88501      1.88501     77.58308         0.000000      0.000000     -0.000427
      0.00000      0.00000     58.63800         0.000000     -0.000000      0.000427
      0.00000      0.00000     66.23137         0.000000      0.000000     -0.000220
      1.88501      1.88501     69.98971         0.000000     -0.000000      0.000220
      1.88501      1.88501    100.28664         0.000000     -0.000000     -0.558649
      0.00000      0.00000     81.34142         0.000000     -0.000000      0.000488
      0.00000      0.00000     88.93493         0.000000      0.000000     -0.000304
      1.88501      1.88501     92.69327         0.000000     -0.000000     -0.003146
      1.88501      1.88501     37.91237         0.000000      0.000000     -0.224324
      0.00000      0.00000     52.90173         0.000000     -0.000000     -0.009486
      0.00000      0.00000     49.26408         0.000000      0.000000      0.009253
      1.88501      1.88501     41.55002         0.000000     -0.000000      0.015864
      1.88501      1.88501     60.61579         0.000000      0.000000     -0.004112
      0.00000      0.00000     75.60529         0.000000     -0.000000      0.004112
      0.00000      0.00000     71.96764         0.000000      0.000000     -0.001798
      1.88501      1.88501     64.25344         0.000000     -0.000000      0.001798
      1.88501      1.88501     83.31935         0.000000     -0.000000      0.009486
      0.00000      0.00000     98.30871         0.000000      0.000000      0.224324
      0.00000      0.00000     94.67106         0.000000     -0.000000     -0.015864
      1.88501      1.88501     86.95700        -0.000000     -0.000000     -0.009253
      1.88501      1.88501     35.05895         0.000000     -0.000000     -0.387726
      0.00000      0.00000     55.75515         0.000000      0.000000     -0.002908
      0.00000      0.00000     46.41066         0.000000      0.000000      0.002804
      1.88501      1.88501     44.40330         0.000000      0.000000      0.002665
      1.88501      1.88501     57.76251         0.000000      0.000000     -0.000947
      0.00000      0.00000     78.45857         0.000000      0.000000      0.000947
      0.00000      0.00000     69.11422         0.000000     -0.000000      0.004195
      1.88501      1.88501     67.10686         0.000000     -0.000000     -0.004195
      1.88501      1.88501     80.46593         0.000000      0.000000      0.002908
      0.00000      0.00000    101.16213         0.000000     -0.000000      0.387726
      0.00000      0.00000     91.81778         0.000000     -0.000000     -0.002665
      1.88501      1.88501     89.81042         0.000000      0.000000     -0.002804
      0.00000      0.00000     51.08291         0.000000     -0.000000      0.000049
      0.00000      1.88501     37.43532         0.000000     -0.000000     -0.016910
      0.00000      1.88501     53.37878         0.000000      0.000000     -0.000246
      1.88501      0.00000     37.43532        -0.000000     -0.000000     -0.016910
      1.88501      0.00000     53.37878         0.000000      0.000000     -0.000246
      1.88501      1.88501     39.73119        -0.000000      0.000000      0.057590
      1.88501      0.00000     48.78704         0.000000     -0.000000      0.000338
      1.88501      0.00000     42.02706         0.000000      0.000000      0.003281
      0.00000      1.88501     48.78704         0.000000      0.000000      0.000338
      0.00000      1.88501     42.02706         0.000000     -0.000000      0.003281
      0.00000      0.00000     73.78646         0.000000     -0.000000      0.003671
      0.00000      1.88501     60.13875         0.000000      0.000000     -0.006205
      0.00000      1.88501     76.08233         0.000000     -0.000000      0.006205
      1.88501      0.00000     60.13875         0.000000      0.000000     -0.006205
      1.88501      0.00000     76.08233         0.000000     -0.000000      0.006205
      1.88501      1.88501     62.43462         0.000000      0.000000     -0.003671
      1.88501      0.00000     71.49059         0.000000     -0.000000     -0.006205
      1.88501      0.00000     64.73049         0.000000     -0.000000      0.006205
      0.00000      1.88501     71.49059         0.000000      0.000000     -0.006205
      0.00000      1.88501     64.73049         0.000000      0.000000      0.006205
      0.00000      0.00000     96.48989         0.000000      0.000000     -0.057590
      0.00000      1.88501     82.84231         0.000000     -0.000000      0.000246
      0.00000      1.88501     98.78576         0.000000     -0.000000      0.016910
      1.88501      0.00000     82.84231         0.000000     -0.000000      0.000246
      1.88501      0.00000     98.78576         0.000000      0.000000      0.016910
      1.88501      1.88501     85.13818         0.000000      0.000000     -0.000049
      1.88501      0.00000     94.19402         0.000000      0.000000     -0.003281
      1.88501      0.00000     87.43405         0.000000     -0.000000     -0.000338
      0.00000      1.88501     94.19402         0.000000     -0.000000     -0.003281
      0.00000      1.88501     87.43405         0.000000      0.000000     -0.000338
 -----------------------------------------------------------------------------------
    total drift:                                0.000000      0.000000      0.000000


--------------------------------------------------------------------------------------------------------



  FREE ENERGIE OF THE ION-ELECTRON SYSTEM (eV)
  ---------------------------------------------------
  free  energy   TOTEN  =      -582.13396487 eV

  energy  without entropy=     -582.13396487  energy(sigma->0) =     -582.13396487
 


--------------------------------------------------------------------------------------------------------


    POTLOK:  cpu time    0.6932: real time    0.6935


--------------------------------------------------------------------------------------------------------


     LOOP+:  cpu time  866.9169: real time  896.4290
    4ORBIT:  cpu time    0.0000: real time    0.0000
 


 total charge     
 
# of ion       s       p       d       f       tot
--------------------------------------------------
    1        2.160   6.402   0.964   0.105   9.631
    2        2.159   6.376   0.919   0.100   9.554
    3        2.160   6.402   0.964   0.105   9.631
    4        2.160   6.402   0.964   0.105   9.631
    5        2.160   6.402   0.964   0.105   9.631
    6        2.160   6.402   0.964   0.105   9.631
    7        2.160   6.402   0.964   0.105   9.631
    8        2.160   6.402   0.964   0.105   9.631
    9        2.159   6.376   0.919   0.100   9.554
   10        2.160   6.402   0.964   0.105   9.631
   11        2.160   6.402   0.964   0.105   9.631
   12        2.160   6.402   0.964   0.105   9.631
   13        0.578   1.041   2.739   0.000   4.358
   14        0.577   1.034   2.742   0.000   4.354
   15        0.577   1.034   2.742   0.000   4.354
   16        0.578   1.035   2.742   0.000   4.354
   17        0.577   1.035   2.742   0.000   4.354
   18        0.577   1.035   2.742   0.000   4.354
   19        0.577   1.034   2.742   0.000   4.353
   20        0.577   1.034   2.742   0.000   4.353
   21        0.577   1.034   2.742   0.000   4.354
   22        0.578   1.041   2.739   0.000   4.358
   23        0.578   1.035   2.742   0.000   4.354
   24        0.577   1.034   2.742   0.000   4.354
   25        1.317   2.439   0.000   0.000   3.756
   26        1.318   2.461   0.000   0.000   3.779
   27        1.318   2.461   0.000   0.000   3.779
   28        1.318   2.461   0.000   0.000   3.779
   29        1.318   2.461   0.000   0.000   3.779
   30        1.318   2.461   0.000   0.000   3.779
   31        1.318   2.461   0.000   0.000   3.779
   32        1.318   2.461   0.000   0.000   3.779
   33        1.318   2.461   0.000   0.000   3.779
   34        1.317   2.439   0.000   0.000   3.756
   35        1.318   2.461   0.000   0.000   3.779
   36        1.318   2.461   0.000   0.000   3.779
   37        1.575   3.429   0.000   0.000   5.004
   38        1.575   3.410   0.000   0.000   4.984
   39        1.552   3.536   0.000   0.000   5.087
   40        1.552   3.537   0.000   0.000   5.088
   41        1.575   3.410   0.000   0.000   4.985
   42        1.576   3.430   0.000   0.000   5.005
   43        1.575   3.410   0.000   0.000   4.985
   44        1.552   3.536   0.000   0.000   5.087
   45        1.552   3.536   0.000   0.000   5.087
   46        1.575   3.410   0.000   0.000   4.985
   47        1.575   3.429   0.000   0.000   5.004
   48        1.575   3.410   0.000   0.000   4.985
   49        1.552   3.536   0.000   0.000   5.087
   50        1.552   3.536   0.000   0.000   5.087
   51        1.575   3.410   0.000   0.000   4.985
   52        1.575   3.429   0.000   0.000   5.004
   53        1.575   3.410   0.000   0.000   4.985
   54        1.552   3.536   0.000   0.000   5.087
   55        1.552   3.536   0.000   0.000   5.087
   56        1.575   3.410   0.000   0.000   4.985
   57        1.576   3.430   0.000   0.000   5.005
   58        1.575   3.410   0.000   0.000   4.985
   59        1.552   3.537   0.000   0.000   5.088
   60        1.552   3.536   0.000   0.000   5.087
   61        1.575   3.410   0.000   0.000   4.984
   62        1.575   3.429   0.000   0.000   5.004
   63        1.575   3.410   0.000   0.000   4.985
   64        1.552   3.536   0.000   0.000   5.087
   65        1.552   3.536   0.000   0.000   5.087
   66        1.575   3.410   0.000   0.000   4.985
--------------------------------------------------
tot         95.633 222.619  44.370   1.250 363.872

 

 total amount of memory used by VASP MPI-rank0    83524. kBytes
=======================================================================

   base      :      30000. kBytes
   nonlr-proj:      15352. kBytes
   fftplans  :       6815. kBytes
   grid      :      12853. kBytes
   one-center:        270. kBytes
   wavefun   :      18234. kBytes
 
  
  
 General timing and accounting informations for this job:
 ========================================================
  
                  Total CPU time used (sec):      961.088
                            User time (sec):      921.891
                          System time (sec):       39.197
                         Elapsed time (sec):      995.417
  
                   Maximum memory used (kb):      203096.
                   Average memory used (kb):           0.
  
                          Minor page faults:       113382
                          Major page faults:            0
                 Voluntary context switches:       215480
