 vasp.5.4.4.18Apr17-6-g9f103f2a35 (build Dec 11 2019 11:16:07) complex          
  
 executed on             LinuxIFC date 2020.12.10  14:45:33
 running on   80 total cores
 distrk:  each k-point on   40 cores,    2 groups
 distr:  one band on NCORES_PER_BAND=  10 cores,    4 groups


--------------------------------------------------------------------------------------------------------


 INCAR:
 POTCAR:    PAW_PBE Sn_d 06Sep2000                
 POTCAR:    PAW_PBE O 08Apr2002                   

 ----------------------------------------------------------------------------- 
|                                                                             |
|           W    W    AA    RRRRR   N    N  II  N    N   GGGG   !!!           |
|           W    W   A  A   R    R  NN   N  II  NN   N  G    G  !!!           |
|           W    W  A    A  R    R  N N  N  II  N N  N  G       !!!           |
|           W WW W  AAAAAA  RRRRR   N  N N  II  N  N N  G  GGG   !            |
|           WW  WW  A    A  R   R   N   NN  II  N   NN  G    G                |
|           W    W  A    A  R    R  N    N  II  N    N   GGGG   !!!           |
|                                                                             |
|      You have enabled k-point parallelism (KPAR>1).                         |
|      This developmental code was originally  written by Paul Kent at ORNL,  |
|      and carefully double checked in Vienna.                                |
|      GW as well as linear response parallelism added by Martijn Marsman     |
|      and Georg Kresse.                                                      |
|      Carefully verify results versus KPAR=1.                                |
|      Report problems to Paul Kent and Vienna.                               |
|                                                                             |
 ----------------------------------------------------------------------------- 

 POTCAR:    PAW_PBE Sn_d 06Sep2000                
   VRHFIN =Sn: s2p2                                                             
   LEXCH  = PE                                                                  
   EATOM  =  1893.1092 eV,  139.1396 Ry                                         
                                                                                
   TITEL  = PAW_PBE Sn_d 06Sep2000                                              
   LULTRA =        F    use ultrasoft PP ?                                      
   IUNSCR =        1    unscreen: 0-lin 1-nonlin 2-no                           
   RPACOR =    2.300    partial core radius                                     
   POMASS =  118.710; ZVAL   =   14.000    mass and valenz                      
   RCORE  =    2.500    outmost cutoff radius                                   
   RWIGS  =    2.960; RWIGS  =    1.566    wigner-seitz radius (au A)           
   ENMAX  =  241.083; ENMIN  =  180.812 eV                                      
   ICORE  =        3    local potential                                         
   LCOR   =        T    correct aug charges                                     
   LPAW   =        T    paw PP                                                  
   EAUG   =  439.825                                                            
   DEXC   =    0.000                                                            
   RMAX   =    2.560    core radius for proj-oper                               
   RAUG   =    1.300    factor for augmentation sphere                          
   RDEP   =    2.659    radius for radial grids                                 
   RDEPT  =    2.046    core radius for aug-charge                              
                                                                                
   Atomic configuration                                                         
   12 entries                                                                   
     n  l   j            E        occ.                                          
     1  0  0.50    -29007.2859   2.0000                                         
     2  0  0.50     -4378.8056   2.0000                                         
     2  1  1.50     -3930.4293   6.0000                                         
     3  0  0.50      -845.0264   2.0000                                         
     3  1  1.50      -698.5725   6.0000                                         
     3  2  2.50      -473.2839  10.0000                                         
     4  0  0.50      -133.9036   2.0000                                         
     4  1  1.50       -89.6752   6.0000                                         
     4  2  2.50       -25.8375  10.0000                                         
     5  0  0.50       -10.5484   2.0000                                         
     5  1  0.50        -3.6940   2.0000                                         
     4  3  2.50        -2.7416   0.0000                                         
   Description                                                                  
     l       E           TYP  RCUT    TYP  RCUT                                 
     2    -25.8374624     23  2.500                                             
     2     -5.4423304     23  2.500                                             
     0    -10.5483727     23  2.500                                             
     0     13.6058260     23  2.500                                             
     1     -3.6939829     23  2.500                                             
     1      1.9821976     23  2.500                                             
     3     -1.3605826      7  2.500                                             
  local pseudopotential read in
  partial core-charges read in
  partial kinetic energy density read in
  atomic valenz-charges read in
  non local Contribution for L=           2  read in
    real space projection operators read in
  non local Contribution for L=           2  read in
    real space projection operators read in
  non local Contribution for L=           0  read in
    real space projection operators read in
  non local Contribution for L=           0  read in
    real space projection operators read in
  non local Contribution for L=           1  read in
    real space projection operators read in
  non local Contribution for L=           1  read in
    real space projection operators read in
    PAW grid and wavefunctions read in
 
   number of l-projection  operators is LMAX  =           6
   number of lm-projection operators is LMMAX =          18
 
 POTCAR:    PAW_PBE O 08Apr2002                   
   VRHFIN =O: s2p4                                                              
   LEXCH  = PE                                                                  
   EATOM  =   432.3788 eV,   31.7789 Ry                                         
                                                                                
   TITEL  = PAW_PBE O 08Apr2002                                                 
   LULTRA =        F    use ultrasoft PP ?                                      
   IUNSCR =        1    unscreen: 0-lin 1-nonlin 2-no                           
   RPACOR =    1.200    partial core radius                                     
   POMASS =   16.000; ZVAL   =    6.000    mass and valenz                      
   RCORE  =    1.520    outmost cutoff radius                                   
   RWIGS  =    1.550; RWIGS  =    0.820    wigner-seitz radius (au A)           
   ENMAX  =  400.000; ENMIN  =  300.000 eV                                      
   ICORE  =        2    local potential                                         
   LCOR   =        T    correct aug charges                                     
   LPAW   =        T    paw PP                                                  
   EAUG   =  605.392                                                            
   DEXC   =    0.000                                                            
   RMAX   =    1.553    core radius for proj-oper                               
   RAUG   =    1.300    factor for augmentation sphere                          
   RDEP   =    1.550    radius for radial grids                                 
   RDEPT  =    1.329    core radius for aug-charge                              
                                                                                
   Atomic configuration                                                         
    4 entries                                                                   
     n  l   j            E        occ.                                          
     1  0  0.50      -514.6923   2.0000                                         
     2  0  0.50       -23.9615   2.0000                                         
     2  1  0.50        -9.0305   4.0000                                         
     3  2  1.50        -9.5241   0.0000                                         
   Description                                                                  
     l       E           TYP  RCUT    TYP  RCUT                                 
     0    -23.9615318     23  1.200                                             
     0     -9.5240782     23  1.200                                             
     1     -9.0304911     23  1.520                                             
     1      8.1634956     23  1.520                                             
     2     -9.5240782      7  1.500                                             
  local pseudopotential read in
  partial core-charges read in
  partial kinetic energy density read in
  kinetic energy density of atom read in
  atomic valenz-charges read in
  non local Contribution for L=           0  read in
    real space projection operators read in
  non local Contribution for L=           0  read in
    real space projection operators read in
  non local Contribution for L=           1  read in
    real space projection operators read in
  non local Contribution for L=           1  read in
    real space projection operators read in
    PAW grid and wavefunctions read in
 
   number of l-projection  operators is LMAX  =           4
   number of lm-projection operators is LMMAX =           8
 
 Optimization of the real space projectors (new method)

 maximal supplied QI-value         = 15.12
 optimisation between [QCUT,QGAM] = [ 11.94, 23.89] = [ 39.94,159.77] Ry 
 Optimized for a Real-space Cutoff    1.41 Angstroem

   l    n(q)    QCUT    max X(q) W(low)/X(q) W(high)/X(q)  e(spline) 
   2      9    11.943     5.880    0.64E-04    0.29E-05    0.11E-06
   2      9    11.943     7.804    0.16E-03    0.49E-04    0.17E-06
   0     10    11.943    20.557    0.63E-04    0.33E-04    0.47E-07
   0     10    11.943     9.400    0.78E-04    0.42E-04    0.59E-07
   1     10    11.943    94.178    0.54E-04    0.37E-04    0.13E-06
   1     10    11.943    56.401    0.52E-04    0.35E-04    0.13E-06
 Optimization of the real space projectors (new method)

 maximal supplied QI-value         = 24.76
 optimisation between [QCUT,QGAM] = [ 11.88, 24.01] = [ 39.54,161.47] Ry 
 Optimized for a Real-space Cutoff    1.18 Angstroem

   l    n(q)    QCUT    max X(q) W(low)/X(q) W(high)/X(q)  e(spline) 
   0      8    11.883    20.381    0.86E-04    0.11E-03    0.31E-06
   0      8    11.883    15.268    0.94E-04    0.12E-03    0.33E-06
   1      8    11.883     5.964    0.19E-03    0.18E-04    0.33E-06
   1      8    11.883     5.382    0.17E-03    0.20E-04    0.29E-06

 ----------------------------------------------------------------------------- 
|                                                                             |
|  ADVICE TO THIS USER RUNNING 'VASP/VAMP'   (HEAR YOUR MASTER'S VOICE ...):  |
|                                                                             |
|      You enforced a specific xc-type in the INCAR file,                     |
|      a different type was found on the POTCAR file                          |
|          I HOPE YOU KNOW, WHAT YOU ARE  DOING                               |
|                                                                             |
 ----------------------------------------------------------------------------- 

  PAW_PBE Sn_d 06Sep2000                :
 energy of atom  1       EATOM=-1893.1092
 kinetic energy error for atom=    0.0016 (will be added to EATOM!!)
  PAW_PBE O 08Apr2002                   :
 energy of atom  2       EATOM= -432.3788
 kinetic energy error for atom=    0.0194 (will be added to EATOM!!)
 
 
 POSCAR: Sn24 O48                                
  positions in direct lattice
  velocities in cartesian coordinates
 exchange correlation table for  LEXCH =       14
   RHO(1)=    0.500       N(1)  =     2000
   RHO(2)=  100.500       N(2)  =     4000
 


--------------------------------------------------------------------------------------------------------


 ion  position               nearest neighbor table
   1  0.000  0.750  0.197-  30 2.00  28 2.06  27 2.06  27 2.06  28 2.06   4 3.70   4 3.70   2 3.75
                             2 3.75   2 3.75   2 3.75
   2  0.500  0.250  0.191-  26 1.99  26 1.99  28 2.12  27 2.12  25 2.17  25 2.17   1 3.75   1 3.75
                             1 3.75   1 3.75
   3  0.000  0.250  0.249-  25 2.05  31 2.08  32 2.08  31 2.08  32 2.08  34 2.10   4 3.74   4 3.74
                             4 3.74   4 3.74
   4  0.500  0.750  0.252-  29 2.05  29 2.05  32 2.06  31 2.06  30 2.09  30 2.09   1 3.70   1 3.70
                             5 3.70   5 3.70   3 3.74   3 3.74   3 3.74   3 3.74
   5  0.000  0.750  0.306-  38 2.05  29 2.06  36 2.07  35 2.07  35 2.07  36 2.07   4 3.70   4 3.70
                             8 3.72   8 3.72   6 3.74   6 3.74   6 3.74   6 3.74
   6  0.500  0.250  0.305-  35 2.07  36 2.07  34 2.07  34 2.07  33 2.08  33 2.08   5 3.74   5 3.74
                             5 3.74   5 3.74   7 3.75   7 3.75
   7  0.000  0.250  0.361-  33 2.07  42 2.07  40 2.07  39 2.07  39 2.07  40 2.07   8 3.74   8 3.74
                             8 3.74   8 3.74  10 3.74  10 3.74   6 3.75   6 3.75
   8  0.500  0.750  0.362-  39 2.07  40 2.07  37 2.07  37 2.07  38 2.07  38 2.07   5 3.72   5 3.72
                             9 3.73   9 3.73   7 3.74   7 3.74   7 3.74   7 3.74
   9  0.000  0.750  0.417-  46 2.06  37 2.06  44 2.07  43 2.07  43 2.07  44 2.07   8 3.73   8 3.73
                            12 3.73  12 3.73  10 3.74  10 3.74  10 3.74  10 3.74
  10  0.500  0.250  0.417-  43 2.07  44 2.07  42 2.07  42 2.07  41 2.07  41 2.07  11 3.74  11 3.74
                             9 3.74   9 3.74   9 3.74   9 3.74   7 3.74   7 3.74
  11  0.000  0.250  0.472-  41 2.06  50 2.07  48 2.07  47 2.07  47 2.07  48 2.07  14 3.73  14 3.73
                            10 3.74  10 3.74  12 3.74  12 3.74  12 3.74  12 3.74
  12  0.500  0.750  0.472-  47 2.07  48 2.07  45 2.07  45 2.07  46 2.07  46 2.07   9 3.73   9 3.73
                            13 3.73  13 3.73  11 3.74  11 3.74  11 3.74  11 3.74
  13  0.000  0.750  0.528-  54 2.06  45 2.07  52 2.07  51 2.07  51 2.07  52 2.07  12 3.73  12 3.73
                            16 3.74  16 3.74  14 3.74  14 3.74  14 3.74  14 3.74
  14  0.500  0.250  0.528-  51 2.07  52 2.07  50 2.07  50 2.07  49 2.07  49 2.07  15 3.73  15 3.73
                            11 3.73  11 3.73  13 3.74  13 3.74  13 3.74  13 3.74
  15  0.000  0.250  0.583-  49 2.06  58 2.06  56 2.07  55 2.07  55 2.07  56 2.07  18 3.73  18 3.73
                            14 3.73  14 3.73  16 3.74  16 3.74  16 3.74  16 3.74
  16  0.500  0.750  0.583-  55 2.07  56 2.07  53 2.07  53 2.07  54 2.07  54 2.07  13 3.74  13 3.74
                            15 3.74  15 3.74  15 3.74  15 3.74  17 3.74  17 3.74
  17  0.000  0.750  0.639-  62 2.07  53 2.07  60 2.07  59 2.07  59 2.07  60 2.07  18 3.74  18 3.74
                            18 3.74  18 3.74  16 3.74  16 3.74  20 3.75  20 3.75
  18  0.500  0.250  0.638-  59 2.07  60 2.07  58 2.07  58 2.07  57 2.07  57 2.07  19 3.72  19 3.72
                            15 3.73  15 3.73  17 3.74  17 3.74  17 3.74  17 3.74
  19  0.000  0.250  0.694-  57 2.05  66 2.06  64 2.07  63 2.07  63 2.07  64 2.07  22 3.70  22 3.70
                            18 3.72  18 3.72  20 3.74  20 3.74  20 3.74  20 3.74
  20  0.500  0.750  0.695-  63 2.07  64 2.07  61 2.07  61 2.07  62 2.08  62 2.08  19 3.74  19 3.74
                            19 3.74  19 3.74  17 3.75  17 3.75
  21  0.000  0.750  0.751-  70 2.05  68 2.08  67 2.08  67 2.08  68 2.08  61 2.10  22 3.74  22 3.74
                            22 3.74  22 3.74
  22  0.500  0.250  0.748-  66 2.05  66 2.05  68 2.06  67 2.06  65 2.09  65 2.09  23 3.70  23 3.70
                            19 3.70  19 3.70  21 3.74  21 3.74  21 3.74  21 3.74
  23  0.000  0.250  0.803-  65 2.00  71 2.06  72 2.06  71 2.06  72 2.06  22 3.70  22 3.70  24 3.75
                            24 3.75  24 3.75  24 3.75
  24  0.500  0.750  0.809-  69 1.99  69 1.99  72 2.12  71 2.12  70 2.17  70 2.17  23 3.75  23 3.75
                            23 3.75  23 3.75
  25  0.000  0.250  0.215-   3 2.05   2 2.17   2 2.17
  26  0.000  0.250  0.172-   2 1.99   2 1.99
  27  0.500  0.935  0.192-   1 2.06   1 2.06   2 2.12
  28  0.500  0.565  0.192-   1 2.06   1 2.06   2 2.12
  29  0.000  0.750  0.273-   4 2.05   4 2.05   5 2.06
  30  0.000  0.750  0.230-   1 2.00   4 2.09   4 2.09
  31  0.500  0.446  0.250-   4 2.06   3 2.08   3 2.08
  32  0.500  0.054  0.250-   4 2.06   3 2.08   3 2.08
  33  0.000  0.250  0.327-   7 2.07   6 2.08   6 2.08
  34  0.000  0.250  0.284-   6 2.07   6 2.07   3 2.10
  35  0.500  0.943  0.306-   6 2.07   5 2.07   5 2.07
  36  0.500  0.557  0.306-   6 2.07   5 2.07   5 2.07
  37  0.000  0.750  0.383-   9 2.06   8 2.07   8 2.07
  38  0.000  0.750  0.340-   5 2.05   8 2.07   8 2.07
  39  0.500  0.444  0.361-   8 2.07   7 2.07   7 2.07
  40  0.500  0.056  0.361-   8 2.07   7 2.07   7 2.07
  41  0.000  0.250  0.438-  11 2.06  10 2.07  10 2.07
  42  0.000  0.250  0.395-  10 2.07  10 2.07   7 2.07
  43  0.500  0.944  0.417-  10 2.07   9 2.07   9 2.07
  44  0.500  0.556  0.417-  10 2.07   9 2.07   9 2.07
  45  0.000  0.750  0.494-  13 2.07  12 2.07  12 2.07
  46  0.000  0.750  0.451-   9 2.06  12 2.07  12 2.07
  47  0.500  0.444  0.472-  12 2.07  11 2.07  11 2.07
  48  0.500  0.056  0.472-  12 2.07  11 2.07  11 2.07
  49  0.000  0.250  0.549-  15 2.06  14 2.07  14 2.07
  50  0.000  0.250  0.506-  11 2.07  14 2.07  14 2.07
  51  0.500  0.944  0.528-  14 2.07  13 2.07  13 2.07
  52  0.500  0.556  0.528-  14 2.07  13 2.07  13 2.07
  53  0.000  0.750  0.605-  16 2.07  16 2.07  17 2.07
  54  0.000  0.750  0.562-  13 2.06  16 2.07  16 2.07
  55  0.500  0.444  0.583-  16 2.07  15 2.07  15 2.07
  56  0.500  0.056  0.583-  16 2.07  15 2.07  15 2.07
  57  0.000  0.250  0.660-  19 2.05  18 2.07  18 2.07
  58  0.000  0.250  0.617-  15 2.06  18 2.07  18 2.07
  59  0.500  0.944  0.639-  18 2.07  17 2.07  17 2.07
  60  0.500  0.556  0.639-  18 2.07  17 2.07  17 2.07
  61  0.000  0.750  0.716-  20 2.07  20 2.07  21 2.10
  62  0.000  0.750  0.673-  17 2.07  20 2.08  20 2.08
  63  0.500  0.443  0.694-  20 2.07  19 2.07  19 2.07
  64  0.500  0.057  0.694-  20 2.07  19 2.07  19 2.07
  65  0.000  0.250  0.770-  23 2.00  22 2.09  22 2.09
  66  0.000  0.250  0.727-  22 2.05  22 2.05  19 2.06
  67  0.500  0.946  0.750-  22 2.06  21 2.08  21 2.08
  68  0.500  0.554  0.750-  22 2.06  21 2.08  21 2.08
  69  0.000  0.750  0.828-  24 1.99  24 1.99
  70  0.000  0.750  0.785-  21 2.05  24 2.17  24 2.17
  71  0.500  0.435  0.808-  23 2.06  23 2.06  24 2.12
  72  0.500  0.065  0.808-  23 2.06  23 2.06  24 2.12
 
  LATTYP: Found a simple orthorhombic cell.
 ALAT       =     3.2161690000
 B/A-ratio  =     2.0986785831
 C/A-ratio  =    18.8881066262
  
  Lattice vectors:
  
 A1 = (   3.2161690000,   0.0000000000,   0.0000000000)
 A2 = (   0.0000000000,   6.7497050000,   0.0000000000)
 A3 = (   0.0000000000,   0.0000000000,  60.7473430000)


Analysis of symmetry for initial positions (statically):
=====================================================================
 Subroutine PRICEL returns:
 Original cell was already a primitive cell.
 

 Routine SETGRP: Setting up the symmetry group for a 
 simple orthorhombic supercell.


 Subroutine GETGRP returns: Found  8 space group operations
 (whereof  4 operations were pure point group operations)
 out of a pool of  8 trial point group operations.


The static configuration has the point symmetry C_2h.
 The point group associated with its full space group is D_2h.


Analysis of symmetry for dynamics (positions and initial velocities):
=====================================================================
 Subroutine PRICEL returns:
 Original cell was already a primitive cell.
 

 Routine SETGRP: Setting up the symmetry group for a 
 simple orthorhombic supercell.


 Subroutine GETGRP returns: Found  8 space group operations
 (whereof  4 operations were pure point group operations)
 out of a pool of  8 trial point group operations.


The dynamic configuration has the point symmetry C_2h.
 The point group associated with its full space group is D_2h.


 Subroutine INISYM returns: Found  8 space group operations
 (whereof  4 operations are pure point group operations),
 and found     1 'primitive' translations

 
 
 KPOINTS: pymatgen v2019.9.16 with grid density = 

Automatic generation of k-mesh.
Space group operators:
 irot       det(A)        alpha          n_x          n_y          n_z        tau_x        tau_y        tau_z
    1     1.000000     0.000000     1.000000     0.000000     0.000000     0.000000     0.000000     0.000000
    2    -1.000000     0.000000     1.000000     0.000000     0.000000     0.000000     0.000000     0.000000
    3     1.000000   180.000000     1.000000     0.000000     0.000000     0.000000     0.000000     0.000000
    4    -1.000000   180.000000     1.000000     0.000000     0.000000     0.000000     0.000000     0.000000
    5     1.000000   180.000000     0.000000     0.000000     1.000000     0.000000     0.500000     0.000000
    6    -1.000000   180.000000     0.000000     0.000000     1.000000     0.000000     0.500000     0.000000
    7     1.000000   180.000000     0.000000     1.000000     0.000000     0.000000     0.500000     0.000000
    8    -1.000000   180.000000     0.000000     1.000000     0.000000     0.000000     0.500000     0.000000
 
 Subroutine IBZKPT returns following result:
 ===========================================
 
 Found      8 irreducible k-points:
 
 Following reciprocal coordinates:
            Coordinates               Weight
  0.000000  0.000000  0.000000      1.000000
  0.166667  0.000000  0.000000      2.000000
  0.333333  0.000000  0.000000      2.000000
  0.500000  0.000000  0.000000      1.000000
  0.000000  0.333333  0.000000      2.000000
  0.166667  0.333333  0.000000      4.000000
  0.333333  0.333333  0.000000      4.000000
  0.500000  0.333333  0.000000      2.000000
 
 Following cartesian coordinates:
            Coordinates               Weight
  0.000000  0.000000  0.000000      1.000000
  0.051821  0.000000  0.000000      2.000000
  0.103643  0.000000  0.000000      2.000000
  0.155464  0.000000  0.000000      1.000000
  0.000000  0.049385  0.000000      2.000000
  0.051821  0.049385  0.000000      4.000000
  0.103643  0.049385  0.000000      4.000000
  0.155464  0.049385  0.000000      2.000000
 


--------------------------------------------------------------------------------------------------------




 Dimension of arrays:
   k-points           NKPTS =      8   k-points in BZ     NKDIM =      8   number of bands    NBANDS=    376
   number of dos      NEDOS =    301   number of ions     NIONS =     72
   non local maximal  LDIM  =      6   non local SUM 2l+1 LMDIM =     18
   total plane-waves  NPLWV = 725760
   max r-space proj   IRMAX =   6454   max aug-charges    IRDMAX=  24774
   dimension x,y,z NGX =    28 NGY =   54 NGZ =  480
   dimension x,y,z NGXF=    56 NGYF=  108 NGZF=  960
   support grid    NGXF=    56 NGYF=  108 NGZF=  960
   ions per type =              24  48
   NGX,Y,Z   is equivalent  to a cutoff of  14.47, 13.30, 13.14 a.u.
   NGXF,Y,Z  is equivalent  to a cutoff of  28.95, 26.60, 26.27 a.u.

 SYSTEM =  unknown system                          
 POSCAR =  Sn24 O48                                

 Startparameter for this run:
   NWRITE =      2    write-flag & timer
   PREC   = accura    normal or accurate (medium, high low for compatibility)
   ISTART =      0    job   : 0-new  1-cont  2-samecut
   ICHARG =      2    charge: 1-file 2-atom 10-const
   ISPIN  =      1    spin polarized calculation?
   LNONCOLLINEAR =      F non collinear calculations
   LSORBIT =      F    spin-orbit coupling
   INIWAV =      1    electr: 0-lowe 1-rand  2-diag
   LASPH  =      T    aspherical Exc in radial PAW
   METAGGA=      F    non-selfconsistent MetaGGA calc.

 Electronic Relaxation 1
   ENCUT  =  550.0 eV  40.42 Ry    6.36 a.u.   6.15 12.91116.16*2*pi/ulx,y,z
   ENINI  =  550.0     initial cutoff
   ENAUG  =  605.4 eV  augmentation charge cutoff
   NELM   =    150;   NELMIN=  2; NELMDL= -5     # of ELM steps 
   EDIFF  = 0.1E-05   stopping-criterion for ELM
   LREAL  =      T    real-space projection
   NLSPLINE    = F    spline interpolate recip. space projectors
   LCOMPAT=      F    compatible to vasp.4.4
   GGA_COMPAT  = T    GGA compatible to vasp.4.4-vasp.4.6
   LMAXPAW     = -100 max onsite density
   LMAXMIX     =    2 max onsite mixed and CHGCAR
   VOSKOWN=      0    Vosko Wilk Nusair interpolation
   ROPT   =   -0.00025  -0.00025
 Ionic relaxation
   EDIFFG = -.1E-01   stopping-criterion for IOM
   NSW    =      0    number of steps for IOM
   NBLOCK =      1;   KBLOCK =      1    inner block; outer block 
   IBRION =     -1    ionic relax: 0-MD 1-quasi-New 2-CG
   NFREE  =      0    steps in history (QN), initial steepest desc. (CG)
   ISIF   =      2    stress and relaxation
   IWAVPR =     11    prediction:  0-non 1-charg 2-wave 3-comb
   ISYM   =      2    0-nonsym 1-usesym 2-fastsym
   LCORR  =      T    Harris-Foulkes like correction to forces

   POTIM  = 0.5000    time-step for ionic-motion
   TEIN   =    0.0    initial temperature
   TEBEG  =    0.0;   TEEND  =   0.0 temperature during run
   SMASS  =  -3.00    Nose mass-parameter (am)
   estimated Nose-frequenzy (Omega)   =  0.10E-29 period in steps =****** mass=  -0.236E-27a.u.
   SCALEE = 1.0000    scale energy and forces
   NPACO  =    256;   APACO  = 16.0  distance and # of slots for P.C.
   PSTRESS=    0.0 pullay stress

  Mass of Ions in am
   POMASS = 118.71 16.00
  Ionic Valenz
   ZVAL   =  14.00  6.00
  Atomic Wigner-Seitz radii
   RWIGS  =  -1.00 -1.00
  virtual crystal weights 
   VCA    =   1.00  1.00
   NELECT =     624.0000    total number of electrons
   NUPDOWN=      -1.0000    fix difference up-down

 DOS related values:
   EMIN   =  10.00;   EMAX   =-10.00  energy-range for DOS
   EFERMI =   0.00
   ISMEAR =     0;   SIGMA  =   0.02  broadening in eV -4-tet -1-fermi 0-gaus

 Electronic relaxation 2 (details)
   IALGO  =     38    algorithm
   LDIAG  =      T    sub-space diagonalisation (order eigenvalues)
   LSUBROT=      F    optimize rotation matrix (better conditioning)
   TURBO    =      0    0=normal 1=particle mesh
   IRESTART =      0    0=no restart 2=restart with 2 vectors
   NREBOOT  =      0    no. of reboots
   NMIN     =      0    reboot dimension
   EREF     =   0.00    reference energy to select bands
   IMIX   =      4    mixing-type and parameters
     AMIX     =   0.40;   BMIX     =  1.00
     AMIX_MAG =   1.60;   BMIX_MAG =  1.00
     AMIN     =   0.10
     WC   =   100.;   INIMIX=   1;  MIXPRE=   1;  MAXMIX= -45

 Intra band minimization:
   WEIMIN = 0.0000     energy-eigenvalue tresh-hold
   EBREAK =  0.66E-09  absolut break condition
   DEPER  =   0.30     relativ break condition  

   TIME   =   0.40     timestep for ELM

  volume/ion in A,a.u.               =      18.32       123.60
  Fermi-wavevector in a.u.,A,eV,Ry     =   1.275712  2.410747 22.142688  1.627442
  Thomas-Fermi vector in A             =   2.408409
 
 Write flags
   LWAVE        =      F    write WAVECAR
   LDOWNSAMPLE  =      F    k-point downsampling of WAVECAR
   LCHARG       =      F    write CHGCAR
   LVTOT        =      F    write LOCPOT, total local potential
   LVHAR        =      T    write LOCPOT, Hartree potential only
   LELF         =      F    write electronic localiz. function (ELF)
   LORBIT       =     11    0 simple, 1 ext, 2 COOP (PROOUT), +10 PAW based schemes


 Dipole corrections
   LMONO  =      F    monopole corrections only (constant potential shift)
   LDIPOL =      F    correct potential (dipole corrections)
   IDIPOL =      0    1-x, 2-y, 3-z, 4-all directions 
   EPSILON=  1.0000000 bulk dielectric constant

 Core level calculations are selected ICORELEVEL =  1
 Exchange correlation treatment:
   GGA     =    PS    GGA type
   LEXCH   =    14    internal setting for exchange type
   VOSKOWN=      0    Vosko Wilk Nusair interpolation
   LHFCALC =     F    Hartree Fock is set to
   LHFONE  =     F    Hartree Fock one center treatment
   AEXX    =    0.0000 exact exchange contribution

 Linear response parameters
   LEPSILON=     F    determine dielectric tensor
   LRPA    =     F    only Hartree local field effects (RPA)
   LNABLA  =     F    use nabla operator in PAW spheres
   LVEL    =     F    velocity operator in full k-point grid
   LINTERFAST=   F  fast interpolation
   KINTER  =     0    interpolate to denser k-point grid
   CSHIFT  =0.1000    complex shift for real part using Kramers Kronig
   OMEGAMAX=  -1.0    maximum frequency
   DEG_THRESHOLD= 0.2000000E-02 threshold for treating states as degnerate
   RTIME   =   -0.100 relaxation time in fs
  (WPLASMAI=    0.000 imaginary part of plasma frequency in eV, 0.658/RTIME)
   DFIELD  = 0.0000000 0.0000000 0.0000000 field for delta impulse in time
 
 Orbital magnetization related:
   ORBITALMAG=     F  switch on orbital magnetization
   LCHIMAG   =     F  perturbation theory with respect to B field
   DQ        =  0.001000  dq finite difference perturbation B field
   LLRAUG    =     F  two centre corrections for induced B field


 ----------------------------------------------------------------------------- 
|                                                                             |
|           W    W    AA    RRRRR   N    N  II  N    N   GGGG   !!!           |
|           W    W   A  A   R    R  NN   N  II  NN   N  G    G  !!!           |
|           W    W  A    A  R    R  N N  N  II  N N  N  G       !!!           |
|           W WW W  AAAAAA  RRRRR   N  N N  II  N  N N  G  GGG   !            |
|           WW  WW  A    A  R   R   N   NN  II  N   NN  G    G                |
|           W    W  A    A  R    R  N    N  II  N    N   GGGG   !!!           |
|                                                                             |
|      One of the lattice vectors is very long (>50 A), but AMIN is rather    |
|      large. This can spoil convergence since charge sloshing might occur    |
|      along the long lattice vector. If problems with convergence are        |
|      observed, try to decrease AMIN to a smaller values (e.g. 0.01).        |
|      Note: this warning only applies if the selfconsistency cycle is used.  |
|                                                                             |
 ----------------------------------------------------------------------------- 



--------------------------------------------------------------------------------------------------------


 Static calculation
 charge density and potential will be updated during run
 non-spin polarized calculation
 Variant of blocked Davidson
 Davidson routine will perform the subspace rotation
 perform sub-space diagonalisation
    after iterative eigenvector-optimisation
 modified Broyden-mixing scheme, WC =      100.0
 initial mixing is a Kerker type mixing with AMIX =  0.4000 and BMIX =      1.0000
 Hartree-type preconditioning will be used
 using additional bands           64
 real space projection scheme for non local part
 use partial core corrections
 calculate Harris-corrections to forces 
   (improved forces if not selfconsistent)
 use gradient corrections 
 use of overlap-Matrix (Vanderbilt PP)
 Gauss-broadening in eV      SIGMA  =   0.02


--------------------------------------------------------------------------------------------------------


  energy-cutoff  :      550.00
  volume of cell :     1318.71
      direct lattice vectors                 reciprocal lattice vectors
     3.216169000  0.000000000  0.000000000     0.310928934  0.000000000  0.000000000
     0.000000000  6.749705000  0.000000000     0.000000000  0.148154623  0.000000000
     0.000000000  0.000000000 60.747343000     0.000000000  0.000000000  0.016461625

  length of vectors
     3.216169000  6.749705000 60.747343000     0.310928934  0.148154623  0.016461625


 
 k-points in units of 2pi/SCALE and weight: pymatgen v2019.9.16 with grid density = 
   0.00000000  0.00000000  0.00000000       0.056
   0.05182149  0.00000000  0.00000000       0.111
   0.10364298  0.00000000  0.00000000       0.111
   0.15546447  0.00000000  0.00000000       0.056
   0.00000000  0.04938487  0.00000000       0.111
   0.05182149  0.04938487  0.00000000       0.222
   0.10364298  0.04938487  0.00000000       0.222
   0.15546447  0.04938487  0.00000000       0.111
 
 k-points in reciprocal lattice and weights: pymatgen v2019.9.16 with grid density = 
   0.00000000  0.00000000  0.00000000       0.056
   0.16666667  0.00000000  0.00000000       0.111
   0.33333333  0.00000000  0.00000000       0.111
   0.50000000  0.00000000  0.00000000       0.056
   0.00000000  0.33333333  0.00000000       0.111
   0.16666667  0.33333333  0.00000000       0.222
   0.33333333  0.33333333  0.00000000       0.222
   0.50000000  0.33333333  0.00000000       0.111
 
 position of ions in fractional coordinates (direct lattice) 
   0.00000000  0.75000000  0.19674311
   0.50000000  0.25000000  0.19133923
   0.00000000  0.25000000  0.24895519
   0.50000000  0.75000000  0.25161657
   0.00000000  0.75000000  0.30649117
   0.50000000  0.25000000  0.30510104
   0.00000000  0.25000000  0.36090556
   0.50000000  0.75000000  0.36167411
   0.00000000  0.75000000  0.41701067
   0.50000000  0.25000000  0.41655035
   0.00000000  0.25000000  0.47208874
   0.50000000  0.75000000  0.47242476
   0.00000000  0.75000000  0.52791126
   0.50000000  0.25000000  0.52757524
   0.00000000  0.25000000  0.58298933
   0.50000000  0.75000000  0.58344965
   0.00000000  0.75000000  0.63909444
   0.50000000  0.25000000  0.63832589
   0.00000000  0.25000000  0.69350883
   0.50000000  0.75000000  0.69489896
   0.00000000  0.75000000  0.75104481
   0.50000000  0.25000000  0.74838343
   0.00000000  0.25000000  0.80325689
   0.50000000  0.75000000  0.80866077
   0.00000000  0.25000000  0.21527583
   0.00000000  0.25000000  0.17195531
   0.50000000  0.93540054  0.19205278
   0.50000000  0.56459946  0.19205278
   0.00000000  0.75000000  0.27253152
   0.00000000  0.75000000  0.22964643
   0.50000000  0.44580010  0.25015028
   0.50000000  0.05419990  0.25015028
   0.00000000  0.25000000  0.32684624
   0.00000000  0.25000000  0.28353729
   0.50000000  0.94346211  0.30598008
   0.50000000  0.55653789  0.30598008
   0.00000000  0.75000000  0.38305258
   0.00000000  0.75000000  0.34021671
   0.50000000  0.44387016  0.36118574
   0.50000000  0.05612984  0.36118574
   0.00000000  0.25000000  0.43810837
   0.00000000  0.25000000  0.39503436
   0.50000000  0.94374887  0.41684023
   0.50000000  0.55625113  0.41684023
   0.00000000  0.75000000  0.49389720
   0.00000000  0.75000000  0.45092113
   0.50000000  0.44380286  0.47220886
   0.50000000  0.05619714  0.47220886
   0.00000000  0.25000000  0.54907887
   0.00000000  0.25000000  0.50610280
   0.50000000  0.94380286  0.52779114
   0.50000000  0.55619714  0.52779114
   0.00000000  0.75000000  0.60496564
   0.00000000  0.75000000  0.56189163
   0.50000000  0.44374887  0.58315977
   0.50000000  0.05625113  0.58315977
   0.00000000  0.25000000  0.65978329
   0.00000000  0.25000000  0.61694742
   0.50000000  0.94387016  0.63881426
   0.50000000  0.55612984  0.63881426
   0.00000000  0.75000000  0.71646271
   0.00000000  0.75000000  0.67315376
   0.50000000  0.44346211  0.69401992
   0.50000000  0.05653789  0.69401992
   0.00000000  0.25000000  0.77035357
   0.00000000  0.25000000  0.72746848
   0.50000000  0.94580010  0.74984972
   0.50000000  0.55419990  0.74984972
   0.00000000  0.75000000  0.82804469
   0.00000000  0.75000000  0.78472417
   0.50000000  0.43540054  0.80794722
   0.50000000  0.06459946  0.80794722
 
 position of ions in cartesian coordinates  (Angst):
   0.00000000  5.06227875 11.95162094
   1.60808450  1.68742625 11.62334955
   0.00000000  1.68742625 15.12336638
   1.60808450  5.06227875 15.28503816
   0.00000000  5.06227875 18.61852422
   1.60808450  1.68742625 18.53407779
   0.00000000  1.68742625 21.92405404
   1.60808450  5.06227875 21.97074122
   0.00000000  5.06227875 25.33228991
   1.60808450  1.68742625 25.30432676
   0.00000000  1.68742625 28.67813691
   1.60808450  5.06227875 28.69854911
   0.00000000  5.06227875 32.06920609
   1.60808450  1.68742625 32.04879389
   0.00000000  1.68742625 35.41505309
   1.60808450  5.06227875 35.44301624
   0.00000000  5.06227875 38.82328896
   1.60808450  1.68742625 38.77660178
   0.00000000  1.68742625 42.12881878
   1.60808450  5.06227875 42.21326521
   0.00000000  5.06227875 45.62397662
   1.60808450  1.68742625 45.46230484
   0.00000000  1.68742625 48.79572206
   1.60808450  5.06227875 49.12399345
   0.00000000  1.68742625 13.07743478
   0.00000000  1.68742625 10.44582838
   1.60808450  6.31367773 11.66669601
   1.60808450  3.81087977 11.66669601
   0.00000000  5.06227875 16.55556562
   0.00000000  5.06227875 13.95041065
   1.60808450  3.00901920 15.19596505
   1.60808450  0.36583330 15.19596505
   0.00000000  1.68742625 19.85504054
   0.00000000  1.68742625 17.22413707
   1.60808450  6.36809092 18.58747685
   1.60808450  3.75646658 18.58747685
   0.00000000  5.06227875 23.26942664
   0.00000000  5.06227875 20.66726095
   1.60808450  2.99599262 21.94107419
   1.60808450  0.37885988 21.94107419
   0.00000000  1.68742625 26.61391919
   0.00000000  1.68742625 23.99728787
   1.60808450  6.37002648 25.32193629
   1.60808450  3.75453102 25.32193629
   0.00000000  5.06227875 30.00294282
   0.00000000  5.06227875 27.39226062
   1.60808450  2.99553839 28.68543366
   1.60808450  0.37931411 28.68543366
   0.00000000  1.68742625 33.35508238
   0.00000000  1.68742625 30.74440018
   1.60808450  6.37039089 32.06190934
   1.60808450  3.75416661 32.06190934
   0.00000000  5.06227875 36.75005513
   0.00000000  5.06227875 34.13342381
   1.60808450  2.99517398 35.42540671
   1.60808450  0.37967852 35.42540671
   0.00000000  1.68742625 40.08008205
   0.00000000  1.68742625 37.47791636
   1.60808450  6.37084512 38.80626881
   1.60808450  3.75371238 38.80626881
   0.00000000  5.06227875 43.52320593
   0.00000000  5.06227875 40.89230246
   1.60808450  2.99323842 42.15986615
   1.60808450  0.38161408 42.15986615
   0.00000000  1.68742625 46.79693235
   0.00000000  1.68742625 44.19177738
   1.60808450  6.38387170 45.55137795
   1.60808450  3.74068580 45.55137795
   0.00000000  5.06227875 50.30151462
   0.00000000  5.06227875 47.66990822
   1.60808450  2.93882523 49.08064699
   1.60808450  0.43602727 49.08064699
 


--------------------------------------------------------------------------------------------------------


 k-point  1 :   0.0000 0.0000 0.0000  plane waves:   38553
 k-point  2 :   0.1667 0.0000 0.0000  plane waves:   38482
 k-point  3 :   0.3333 0.0000 0.0000  plane waves:   38648
 k-point  4 :   0.5000 0.0000 0.0000  plane waves:   38628
 k-point  5 :   0.0000 0.3333 0.0000  plane waves:   38572
 k-point  6 :   0.1667 0.3333 0.0000  plane waves:   38582
 k-point  7 :   0.3333 0.3333 0.0000  plane waves:   38692
 k-point  8 :   0.5000 0.3333 0.0000  plane waves:   38768

 maximum and minimum number of plane-waves per node :      3900     3819

 maximum number of plane-waves:     38768
 maximum index in each direction: 
   IXMAX=    6   IYMAX=   12   IZMAX=  116
   IXMIN=   -6   IYMIN=  -13   IZMIN= -116


 real space projection operators:
  total allocation   :      31903.06 KBytes
  max/ min on nodes  :       3461.25       2409.50


 parallel 3D FFT for wavefunctions:
    minimum data exchange during FFTs selected (reduces bandwidth)
 parallel 3D FFT for charge:
    minimum data exchange during FFTs selected (reduces bandwidth)


 total amount of memory used by VASP MPI-rank0   113569. kBytes
=======================================================================

   base      :      30000. kBytes
   nonlr-proj:      12141. kBytes
   fftplans  :       8723. kBytes
   grid      :      14742. kBytes
   one-center:        124. kBytes
   wavefun   :      47839. kBytes
 
     INWAV:  cpu time    0.0000: real time    0.0000
 Broyden mixing: mesh for mixing (old mesh)
   NGX = 13   NGY = 25   NGZ =233
  (NGX  = 56   NGY  =108   NGZ  =960)
  gives a total of  75725 points

 initial charge density was supplied:
 charge density of overlapping atoms calculated
 number of electron     624.0000000 magnetization 
 keeping initial charge density in first step


--------------------------------------------------------------------------------------------------------


 Maximum index for non-local projection operator          726
 Maximum index for augmentation-charges         1222 (set IRDMAX)


--------------------------------------------------------------------------------------------------------


 First call to EWALD:  gamma=   0.162
 Maximum number of real-space cells 8x 4x 1
 Maximum number of reciprocal cells 1x 2x13

    FEWALD:  cpu time    0.0060: real time    0.0060


--------------------------------------- Iteration      1(   1)  ---------------------------------------


    POTLOK:  cpu time    0.1055: real time    0.1170
    SETDIJ:  cpu time    0.1232: real time    0.1235
     EDDAV:  cpu time    9.3007: real time    9.3922
       DOS:  cpu time    0.0012: real time    0.0017
    --------------------------------------------
      LOOP:  cpu time    9.5308: real time    9.6345

 eigenvalue-minimisations  :  6104
 total energy-change (2. order) : 0.1316431E+05  (-0.2562272E+05)
 number of electron     624.0000000 magnetization 
 augmentation part      624.0000000 magnetization 

 Free energy of the ion-electron system (eV)
  ---------------------------------------------------
  alpha Z        PSCENC =      1434.42426354
  Ewald energy   TEWEN  =    868589.61700469
  -Hartree energ DENC   =   -931420.69960847
  -exchange      EXHF   =         0.00000000
  -V(xc)+E(xc)   XCENC  =      2755.16933198
  PAW double counting   =     54256.47513254   -55224.08484040
  entropy T*S    EENTRO =        -0.00254970
  eigenvalues    EBANDS =      6678.46949656
  atomic energy  EATOM  =     66094.93779060
  Solvation  Ediel_sol  =         0.00000000
  ---------------------------------------------------
  free energy    TOTEN  =     13164.30602132 eV

  energy without entropy =    13164.30857102  energy(sigma->0) =    13164.30729617


--------------------------------------------------------------------------------------------------------




--------------------------------------- Iteration      1(   2)  ---------------------------------------


     EDDAV:  cpu time    9.7710: real time    9.8006
       DOS:  cpu time    0.0012: real time    0.0012
    --------------------------------------------
      LOOP:  cpu time    9.7722: real time    9.8018

 eigenvalue-minimisations  :  6560
 total energy-change (2. order) :-0.1064900E+05  (-0.1025609E+05)
 number of electron     624.0000000 magnetization 
 augmentation part      624.0000000 magnetization 

 Free energy of the ion-electron system (eV)
  ---------------------------------------------------
  alpha Z        PSCENC =      1434.42426354
  Ewald energy   TEWEN  =    868589.61700469
  -Hartree energ DENC   =   -931420.69960847
  -exchange      EXHF   =         0.00000000
  -V(xc)+E(xc)   XCENC  =      2755.16933198
  PAW double counting   =     54256.47513254   -55224.08484040
  entropy T*S    EENTRO =        -0.00411310
  eigenvalues    EBANDS =     -3970.52714815
  atomic energy  EATOM  =     66094.93779060
  Solvation  Ediel_sol  =         0.00000000
  ---------------------------------------------------
  free energy    TOTEN  =      2515.30781321 eV

  energy without entropy =     2515.31192631  energy(sigma->0) =     2515.30986976


--------------------------------------------------------------------------------------------------------




--------------------------------------- Iteration      1(   3)  ---------------------------------------


     EDDAV:  cpu time    9.9062: real time    9.9362
       DOS:  cpu time    0.0006: real time    0.0006
    --------------------------------------------
      LOOP:  cpu time    9.9068: real time    9.9368

 eigenvalue-minimisations  :  6496
 total energy-change (2. order) :-0.2718015E+04  (-0.2594476E+04)
 number of electron     624.0000000 magnetization 
 augmentation part      624.0000000 magnetization 

 Free energy of the ion-electron system (eV)
  ---------------------------------------------------
  alpha Z        PSCENC =      1434.42426354
  Ewald energy   TEWEN  =    868589.61700469
  -Hartree energ DENC   =   -931420.69960847
  -exchange      EXHF   =         0.00000000
  -V(xc)+E(xc)   XCENC  =      2755.16933198
  PAW double counting   =     54256.47513254   -55224.08484040
  entropy T*S    EENTRO =        -0.00000000
  eigenvalues    EBANDS =     -6688.54631674
  atomic energy  EATOM  =     66094.93779060
  Solvation  Ediel_sol  =         0.00000000
  ---------------------------------------------------
  free energy    TOTEN  =      -202.70724228 eV

  energy without entropy =     -202.70724228  energy(sigma->0) =     -202.70724228


--------------------------------------------------------------------------------------------------------




--------------------------------------- Iteration      1(   4)  ---------------------------------------


     EDDAV:  cpu time   10.8949: real time   10.9281
       DOS:  cpu time    0.0006: real time    0.0006
    --------------------------------------------
      LOOP:  cpu time   10.8955: real time   10.9287

 eigenvalue-minimisations  :  7048
 total energy-change (2. order) :-0.3216427E+03  (-0.3150863E+03)
 number of electron     624.0000000 magnetization 
 augmentation part      624.0000000 magnetization 

 Free energy of the ion-electron system (eV)
  ---------------------------------------------------
  alpha Z        PSCENC =      1434.42426354
  Ewald energy   TEWEN  =    868589.61700469
  -Hartree energ DENC   =   -931420.69960847
  -exchange      EXHF   =         0.00000000
  -V(xc)+E(xc)   XCENC  =      2755.16933198
  PAW double counting   =     54256.47513254   -55224.08484040
  entropy T*S    EENTRO =        -0.00000000
  eigenvalues    EBANDS =     -7010.18896860
  atomic energy  EATOM  =     66094.93779060
  Solvation  Ediel_sol  =         0.00000000
  ---------------------------------------------------
  free energy    TOTEN  =      -524.34989414 eV

  energy without entropy =     -524.34989414  energy(sigma->0) =     -524.34989414


--------------------------------------------------------------------------------------------------------




--------------------------------------- Iteration      1(   5)  ---------------------------------------


     EDDAV:  cpu time   10.2008: real time   10.2315
       DOS:  cpu time    0.0006: real time    0.0006
    CHARGE:  cpu time    0.5244: real time    0.5256
    MIXING:  cpu time    0.0047: real time    0.0048
    --------------------------------------------
      LOOP:  cpu time   10.7305: real time   10.7625

 eigenvalue-minimisations  :  6952
 total energy-change (2. order) :-0.1479376E+02  (-0.1462982E+02)
 number of electron     623.9999950 magnetization 
 augmentation part      221.5559788 magnetization 

 Broyden mixing:
  rms(total) = 0.50402E+01    rms(broyden)= 0.50385E+01
  rms(prec ) = 0.50861E+01
  weight for this iteration     100.00

 Free energy of the ion-electron system (eV)
  ---------------------------------------------------
  alpha Z        PSCENC =      1434.42426354
  Ewald energy   TEWEN  =    868589.61700469
  -Hartree energ DENC   =   -931420.69960847
  -exchange      EXHF   =         0.00000000
  -V(xc)+E(xc)   XCENC  =      2755.16933198
  PAW double counting   =     54256.47513254   -55224.08484040
  entropy T*S    EENTRO =        -0.00000000
  eigenvalues    EBANDS =     -7024.98272512
  atomic energy  EATOM  =     66094.93779060
  Solvation  Ediel_sol  =         0.00000000
  ---------------------------------------------------
  free energy    TOTEN  =      -539.14365066 eV

  energy without entropy =     -539.14365066  energy(sigma->0) =     -539.14365066


--------------------------------------------------------------------------------------------------------




--------------------------------------- Iteration      1(   6)  ---------------------------------------


    POTLOK:  cpu time    0.1029: real time    0.1080
    SETDIJ:  cpu time    0.1174: real time    0.1177
     EDDAV:  cpu time   12.5709: real time   12.6211
       DOS:  cpu time    0.0006: real time    0.0006
    CHARGE:  cpu time    0.4792: real time    0.4804
    MIXING:  cpu time    0.0052: real time    0.0102
    --------------------------------------------
      LOOP:  cpu time   13.2763: real time   13.3380

 eigenvalue-minimisations  :  8992
 total energy-change (2. order) : 0.6690221E+02  (-0.2311607E+02)
 number of electron     623.9999960 magnetization 
 augmentation part      213.1537537 magnetization 

 Broyden mixing:
  rms(total) = 0.19174E+01    rms(broyden)= 0.19161E+01
  rms(prec ) = 0.19204E+01
  weight for this iteration     100.00

 eigenvalues of (default mixing * dielectric matrix)
  average eigenvalue GAMMA=   0.9736
  0.9736

 Free energy of the ion-electron system (eV)
  ---------------------------------------------------
  alpha Z        PSCENC =      1434.42426354
  Ewald energy   TEWEN  =    868589.61700469
  -Hartree energ DENC   =   -931857.82683725
  -exchange      EXHF   =         0.00000000
  -V(xc)+E(xc)   XCENC  =      2798.65430253
  PAW double counting   =     63265.43522320   -64176.07634747
  entropy T*S    EENTRO =        -0.00000000
  eigenvalues    EBANDS =     -6621.40683843
  atomic energy  EATOM  =     66094.93779060
  Solvation  Ediel_sol  =         0.00000000
  ---------------------------------------------------
  free energy    TOTEN  =      -472.24143859 eV

  energy without entropy =     -472.24143859  energy(sigma->0) =     -472.24143859


--------------------------------------------------------------------------------------------------------




--------------------------------------- Iteration      1(   7)  ---------------------------------------


    POTLOK:  cpu time    0.1066: real time    0.1076
    SETDIJ:  cpu time    0.1162: real time    0.1165
     EDDAV:  cpu time   10.5498: real time   10.5824
       DOS:  cpu time    0.0005: real time    0.0005
    CHARGE:  cpu time    0.5149: real time    0.5162
    MIXING:  cpu time    0.0057: real time    0.0063
    --------------------------------------------
      LOOP:  cpu time   11.2937: real time   11.3294

 eigenvalue-minimisations  :  6752
 total energy-change (2. order) :-0.1313183E+01  (-0.2869154E+01)
 number of electron     623.9999960 magnetization 
 augmentation part      212.9217734 magnetization 

 Broyden mixing:
  rms(total) = 0.11637E+01    rms(broyden)= 0.11636E+01
  rms(prec ) = 0.11669E+01
  weight for this iteration     100.00

 eigenvalues of (default mixing * dielectric matrix)
  average eigenvalue GAMMA=   1.5147
  1.1471  1.8822

 Free energy of the ion-electron system (eV)
  ---------------------------------------------------
  alpha Z        PSCENC =      1434.42426354
  Ewald energy   TEWEN  =    868589.61700469
  -Hartree energ DENC   =   -931872.17184210
  -exchange      EXHF   =         0.00000000
  -V(xc)+E(xc)   XCENC  =      2798.45401681
  PAW double counting   =     69999.82622787   -70924.52896937
  entropy T*S    EENTRO =        -0.00000000
  eigenvalues    EBANDS =     -6594.11311338
  atomic energy  EATOM  =     66094.93779060
  Solvation  Ediel_sol  =         0.00000000
  ---------------------------------------------------
  free energy    TOTEN  =      -473.55462136 eV

  energy without entropy =     -473.55462136  energy(sigma->0) =     -473.55462136


--------------------------------------------------------------------------------------------------------




--------------------------------------- Iteration      1(   8)  ---------------------------------------


    POTLOK:  cpu time    0.1048: real time    0.1095
    SETDIJ:  cpu time    0.1287: real time    0.1290
     EDDAV:  cpu time   11.6578: real time   11.6876
       DOS:  cpu time    0.0007: real time    0.0007
    CHARGE:  cpu time    0.4812: real time    0.4823
    MIXING:  cpu time    0.0050: real time    0.0060
    --------------------------------------------
      LOOP:  cpu time   12.3781: real time   12.4150

 eigenvalue-minimisations  :  8096
 total energy-change (2. order) : 0.4582084E+00  (-0.4609373E+00)
 number of electron     623.9999959 magnetization 
 augmentation part      213.5300422 magnetization 

 Broyden mixing:
  rms(total) = 0.31897E+00    rms(broyden)= 0.31883E+00
  rms(prec ) = 0.32265E+00
  weight for this iteration     100.00

 eigenvalues of (default mixing * dielectric matrix)
  average eigenvalue GAMMA=   1.4447
  2.3158  1.0091  1.0091

 Free energy of the ion-electron system (eV)
  ---------------------------------------------------
  alpha Z        PSCENC =      1434.42426354
  Ewald energy   TEWEN  =    868589.61700469
  -Hartree energ DENC   =   -931842.59509954
  -exchange      EXHF   =         0.00000000
  -V(xc)+E(xc)   XCENC  =      2794.58164331
  PAW double counting   =     77092.76424255   -78046.20727096
  entropy T*S    EENTRO =        -0.00000000
  eigenvalues    EBANDS =     -6590.61898716
  atomic energy  EATOM  =     66094.93779060
  Solvation  Ediel_sol  =         0.00000000
  ---------------------------------------------------
  free energy    TOTEN  =      -473.09641297 eV

  energy without entropy =     -473.09641297  energy(sigma->0) =     -473.09641297


--------------------------------------------------------------------------------------------------------




--------------------------------------- Iteration      1(   9)  ---------------------------------------


    POTLOK:  cpu time    0.1017: real time    0.1072
    SETDIJ:  cpu time    0.1159: real time    0.1162
     EDDAV:  cpu time   12.0110: real time   12.0419
       DOS:  cpu time    0.0007: real time    0.0007
    CHARGE:  cpu time    0.4785: real time    0.4797
    MIXING:  cpu time    0.0049: real time    0.0049
    --------------------------------------------
      LOOP:  cpu time   12.7128: real time   12.7506

 eigenvalue-minimisations  :  8464
 total energy-change (2. order) : 0.2570949E+00  (-0.1358863E+00)
 number of electron     623.9999959 magnetization 
 augmentation part      212.9749091 magnetization 

 Broyden mixing:
  rms(total) = 0.70808E-01    rms(broyden)= 0.70644E-01
  rms(prec ) = 0.71457E-01
  weight for this iteration     100.00

 eigenvalues of (default mixing * dielectric matrix)
  average eigenvalue GAMMA=   1.3136
  2.3905  1.0408  1.0408  0.7824

 Free energy of the ion-electron system (eV)
  ---------------------------------------------------
  alpha Z        PSCENC =      1434.42426354
  Ewald energy   TEWEN  =    868589.61700469
  -Hartree energ DENC   =   -931868.21466118
  -exchange      EXHF   =         0.00000000
  -V(xc)+E(xc)   XCENC  =      2797.48446246
  PAW double counting   =     78444.10907266   -79397.54848198
  entropy T*S    EENTRO =        -0.00000000
  eigenvalues    EBANDS =     -6567.64876884
  atomic energy  EATOM  =     66094.93779060
  Solvation  Ediel_sol  =         0.00000000
  ---------------------------------------------------
  free energy    TOTEN  =      -472.83931806 eV

  energy without entropy =     -472.83931806  energy(sigma->0) =     -472.83931806


--------------------------------------------------------------------------------------------------------




--------------------------------------- Iteration      1(  10)  ---------------------------------------


    POTLOK:  cpu time    0.1014: real time    0.1068
    SETDIJ:  cpu time    0.1166: real time    0.1169
     EDDAV:  cpu time   10.5802: real time   10.6088
       DOS:  cpu time    0.0007: real time    0.0007
    CHARGE:  cpu time    0.4869: real time    0.4881
    MIXING:  cpu time    0.0052: real time    0.0053
    --------------------------------------------
      LOOP:  cpu time   11.2911: real time   11.3265

 eigenvalue-minimisations  :  6928
 total energy-change (2. order) :-0.1518470E-01  (-0.1631321E-01)
 number of electron     623.9999959 magnetization 
 augmentation part      212.9502369 magnetization 

 Broyden mixing:
  rms(total) = 0.45891E-01    rms(broyden)= 0.45884E-01
  rms(prec ) = 0.46250E-01
  weight for this iteration     100.00

 eigenvalues of (default mixing * dielectric matrix)
  average eigenvalue GAMMA=   1.3143
  2.4280  1.4503  0.8832  0.8832  0.9270

 Free energy of the ion-electron system (eV)
  ---------------------------------------------------
  alpha Z        PSCENC =      1434.42426354
  Ewald energy   TEWEN  =    868589.61700469
  -Hartree energ DENC   =   -931882.85749093
  -exchange      EXHF   =         0.00000000
  -V(xc)+E(xc)   XCENC  =      2797.47848457
  PAW double counting   =     78607.10696612   -79562.35548056
  entropy T*S    EENTRO =        -0.00000000
  eigenvalues    EBANDS =     -6551.20604078
  atomic energy  EATOM  =     66094.93779060
  Solvation  Ediel_sol  =         0.00000000
  ---------------------------------------------------
  free energy    TOTEN  =      -472.85450276 eV

  energy without entropy =     -472.85450276  energy(sigma->0) =     -472.85450276


--------------------------------------------------------------------------------------------------------




--------------------------------------- Iteration      1(  11)  ---------------------------------------


    POTLOK:  cpu time    0.1013: real time    0.1069
    SETDIJ:  cpu time    0.1156: real time    0.1159
     EDDAV:  cpu time   12.6402: real time   12.6833
       DOS:  cpu time    0.0006: real time    0.0006
    CHARGE:  cpu time    0.4778: real time    0.4790
    MIXING:  cpu time    0.0050: real time    0.0050
    --------------------------------------------
      LOOP:  cpu time   13.3406: real time   13.3908

 eigenvalue-minimisations  :  8704
 total energy-change (2. order) :-0.4328741E-02  (-0.1334182E-02)
 number of electron     623.9999959 magnetization 
 augmentation part      212.9744484 magnetization 

 Broyden mixing:
  rms(total) = 0.22074E-01    rms(broyden)= 0.22069E-01
  rms(prec ) = 0.22300E-01
  weight for this iteration     100.00

 eigenvalues of (default mixing * dielectric matrix)
  average eigenvalue GAMMA=   1.4261
  2.4032  2.4032  0.9684  0.9684  0.9067  0.9067

 Free energy of the ion-electron system (eV)
  ---------------------------------------------------
  alpha Z        PSCENC =      1434.42426354
  Ewald energy   TEWEN  =    868589.61700469
  -Hartree energ DENC   =   -931890.00055271
  -exchange      EXHF   =         0.00000000
  -V(xc)+E(xc)   XCENC  =      2797.30260437
  PAW double counting   =     78605.43493150   -79562.05008464
  entropy T*S    EENTRO =        -0.00000000
  eigenvalues    EBANDS =     -6542.52478885
  atomic energy  EATOM  =     66094.93779060
  Solvation  Ediel_sol  =         0.00000000
  ---------------------------------------------------
  free energy    TOTEN  =      -472.85883150 eV

  energy without entropy =     -472.85883150  energy(sigma->0) =     -472.85883150


--------------------------------------------------------------------------------------------------------




--------------------------------------- Iteration      1(  12)  ---------------------------------------


    POTLOK:  cpu time    0.1019: real time    0.1082
    SETDIJ:  cpu time    0.1156: real time    0.1159
     EDDAV:  cpu time   10.9007: real time   10.9341
       DOS:  cpu time    0.0006: real time    0.0006
    CHARGE:  cpu time    0.4812: real time    0.4823
    MIXING:  cpu time    0.0053: real time    0.0053
    --------------------------------------------
      LOOP:  cpu time   11.6053: real time   11.6465

 eigenvalue-minimisations  :  7512
 total energy-change (2. order) :-0.3068101E-02  (-0.3381905E-03)
 number of electron     623.9999959 magnetization 
 augmentation part      212.9840664 magnetization 

 Broyden mixing:
  rms(total) = 0.70426E-02    rms(broyden)= 0.70397E-02
  rms(prec ) = 0.72644E-02
  weight for this iteration     100.00

 eigenvalues of (default mixing * dielectric matrix)
  average eigenvalue GAMMA=   1.3972
  2.7046  2.3763  1.0849  0.9829  0.9829  0.8244  0.8244

 Free energy of the ion-electron system (eV)
  ---------------------------------------------------
  alpha Z        PSCENC =      1434.42426354
  Ewald energy   TEWEN  =    868589.61700469
  -Hartree energ DENC   =   -931898.36450003
  -exchange      EXHF   =         0.00000000
  -V(xc)+E(xc)   XCENC  =      2797.24216183
  PAW double counting   =     78536.69565927   -79494.20728583
  entropy T*S    EENTRO =        -0.00000000
  eigenvalues    EBANDS =     -6533.20699367
  atomic energy  EATOM  =     66094.93779060
  Solvation  Ediel_sol  =         0.00000000
  ---------------------------------------------------
  free energy    TOTEN  =      -472.86189960 eV

  energy without entropy =     -472.86189960  energy(sigma->0) =     -472.86189960


--------------------------------------------------------------------------------------------------------




--------------------------------------- Iteration      1(  13)  ---------------------------------------


    POTLOK:  cpu time    0.1038: real time    0.1082
    SETDIJ:  cpu time    0.1165: real time    0.1168
     EDDAV:  cpu time   10.4643: real time   10.4942
       DOS:  cpu time    0.0006: real time    0.0006
    CHARGE:  cpu time    0.5207: real time    0.5219
    MIXING:  cpu time    0.0065: real time    0.0065
    --------------------------------------------
      LOOP:  cpu time   11.2124: real time   11.2481

 eigenvalue-minimisations  :  7088
 total energy-change (2. order) :-0.8029899E-03  (-0.6475610E-04)
 number of electron     623.9999959 magnetization 
 augmentation part      212.9857827 magnetization 

 Broyden mixing:
  rms(total) = 0.40328E-02    rms(broyden)= 0.40323E-02
  rms(prec ) = 0.42219E-02
  weight for this iteration     100.00

 eigenvalues of (default mixing * dielectric matrix)
  average eigenvalue GAMMA=   1.3746
  2.7948  2.3775  1.0421  1.0421  0.9732  0.9732  0.8969  0.8969

 Free energy of the ion-electron system (eV)
  ---------------------------------------------------
  alpha Z        PSCENC =      1434.42426354
  Ewald energy   TEWEN  =    868589.61700469
  -Hartree energ DENC   =   -931902.28767345
  -exchange      EXHF   =         0.00000000
  -V(xc)+E(xc)   XCENC  =      2797.24629711
  PAW double counting   =     78528.85830541   -79486.50496945
  entropy T*S    EENTRO =        -0.00000000
  eigenvalues    EBANDS =     -6529.15372103
  atomic energy  EATOM  =     66094.93779060
  Solvation  Ediel_sol  =         0.00000000
  ---------------------------------------------------
  free energy    TOTEN  =      -472.86270259 eV

  energy without entropy =     -472.86270259  energy(sigma->0) =     -472.86270259


--------------------------------------------------------------------------------------------------------




--------------------------------------- Iteration      1(  14)  ---------------------------------------


    POTLOK:  cpu time    0.1111: real time    0.1165
    SETDIJ:  cpu time    0.1188: real time    0.1191
     EDDAV:  cpu time   11.9671: real time   11.9975
       DOS:  cpu time    0.0006: real time    0.0006
    CHARGE:  cpu time    0.4867: real time    0.4878
    MIXING:  cpu time    0.0053: real time    0.0053
    --------------------------------------------
      LOOP:  cpu time   12.6896: real time   12.7269

 eigenvalue-minimisations  :  8112
 total energy-change (2. order) :-0.4780442E-03  (-0.1764812E-04)
 number of electron     623.9999959 magnetization 
 augmentation part      212.9881125 magnetization 

 Broyden mixing:
  rms(total) = 0.23449E-02    rms(broyden)= 0.23442E-02
  rms(prec ) = 0.25213E-02
  weight for this iteration     100.00

 eigenvalues of (default mixing * dielectric matrix)
  average eigenvalue GAMMA=   1.4608
  2.9874  2.2947  2.2947  0.9556  0.9556  0.9604  0.9604  0.8691  0.8691

 Free energy of the ion-electron system (eV)
  ---------------------------------------------------
  alpha Z        PSCENC =      1434.42426354
  Ewald energy   TEWEN  =    868589.61700469
  -Hartree energ DENC   =   -931905.07550536
  -exchange      EXHF   =         0.00000000
  -V(xc)+E(xc)   XCENC  =      2797.24332588
  PAW double counting   =     78527.44461413   -79485.10606053
  entropy T*S    EENTRO =        -0.00000000
  eigenvalues    EBANDS =     -6526.34861357
  atomic energy  EATOM  =     66094.93779060
  Solvation  Ediel_sol  =         0.00000000
  ---------------------------------------------------
  free energy    TOTEN  =      -472.86318064 eV

  energy without entropy =     -472.86318064  energy(sigma->0) =     -472.86318064


--------------------------------------------------------------------------------------------------------




--------------------------------------- Iteration      1(  15)  ---------------------------------------


    POTLOK:  cpu time    0.1026: real time    0.1081
    SETDIJ:  cpu time    0.1167: real time    0.1170
     EDDAV:  cpu time   10.7287: real time   10.7667
       DOS:  cpu time    0.0006: real time    0.0006
    CHARGE:  cpu time    0.4859: real time    0.4871
    MIXING:  cpu time    0.0053: real time    0.0053
    --------------------------------------------
      LOOP:  cpu time   11.4399: real time   11.4848

 eigenvalue-minimisations  :  7424
 total energy-change (2. order) :-0.5212604E-03  (-0.7908629E-05)
 number of electron     623.9999959 magnetization 
 augmentation part      212.9869540 magnetization 

 Broyden mixing:
  rms(total) = 0.12775E-02    rms(broyden)= 0.12773E-02
  rms(prec ) = 0.13976E-02
  weight for this iteration     100.00

 eigenvalues of (default mixing * dielectric matrix)
  average eigenvalue GAMMA=   1.4646
  3.0211  2.5109  2.3552  1.0900  0.9355  0.9355  0.8890  0.8890  1.0100  1.0100

 Free energy of the ion-electron system (eV)
  ---------------------------------------------------
  alpha Z        PSCENC =      1434.42426354
  Ewald energy   TEWEN  =    868589.61700469
  -Hartree energ DENC   =   -931909.44925800
  -exchange      EXHF   =         0.00000000
  -V(xc)+E(xc)   XCENC  =      2797.26148137
  PAW double counting   =     78528.48235060   -79486.07959943
  entropy T*S    EENTRO =        -0.00000000
  eigenvalues    EBANDS =     -6522.05773526
  atomic energy  EATOM  =     66094.93779060
  Solvation  Ediel_sol  =         0.00000000
  ---------------------------------------------------
  free energy    TOTEN  =      -472.86370190 eV

  energy without entropy =     -472.86370190  energy(sigma->0) =     -472.86370190


--------------------------------------------------------------------------------------------------------




--------------------------------------- Iteration      1(  16)  ---------------------------------------


    POTLOK:  cpu time    0.1030: real time    0.1084
    SETDIJ:  cpu time    0.1167: real time    0.1170
     EDDAV:  cpu time   10.1691: real time   10.2058
       DOS:  cpu time    0.0006: real time    0.0006
    CHARGE:  cpu time    0.4886: real time    0.4897
    MIXING:  cpu time    0.0056: real time    0.0281
    --------------------------------------------
      LOOP:  cpu time   10.8836: real time   10.9496

 eigenvalue-minimisations  :  6992
 total energy-change (2. order) :-0.1846154E-03  (-0.1855262E-05)
 number of electron     623.9999959 magnetization 
 augmentation part      212.9871012 magnetization 

 Broyden mixing:
  rms(total) = 0.83419E-03    rms(broyden)= 0.83412E-03
  rms(prec ) = 0.93659E-03
  weight for this iteration     100.00

 eigenvalues of (default mixing * dielectric matrix)
  average eigenvalue GAMMA=   1.4829
  3.3601  2.5509  2.3260  1.2104  1.2104  0.9724  0.9724  0.8781  0.8781  0.9764
  0.9764

 Free energy of the ion-electron system (eV)
  ---------------------------------------------------
  alpha Z        PSCENC =      1434.42426354
  Ewald energy   TEWEN  =    868589.61700469
  -Hartree energ DENC   =   -931911.37874454
  -exchange      EXHF   =         0.00000000
  -V(xc)+E(xc)   XCENC  =      2797.26259526
  PAW double counting   =     78528.46162989   -79486.03487251
  entropy T*S    EENTRO =        -0.00000000
  eigenvalues    EBANDS =     -6520.15355344
  atomic energy  EATOM  =     66094.93779060
  Solvation  Ediel_sol  =         0.00000000
  ---------------------------------------------------
  free energy    TOTEN  =      -472.86388651 eV

  energy without entropy =     -472.86388651  energy(sigma->0) =     -472.86388651


--------------------------------------------------------------------------------------------------------




--------------------------------------- Iteration      1(  17)  ---------------------------------------


    POTLOK:  cpu time    0.1106: real time    0.1166
    SETDIJ:  cpu time    0.1089: real time    0.1091
     EDDAV:  cpu time    9.8465: real time    9.8705
       DOS:  cpu time    0.0006: real time    0.0006
    CHARGE:  cpu time    0.4979: real time    0.4991
    MIXING:  cpu time    0.0055: real time    0.0055
    --------------------------------------------
      LOOP:  cpu time   10.5699: real time   10.6014

 eigenvalue-minimisations  :  6192
 total energy-change (2. order) :-0.1568604E-03  (-0.1272247E-05)
 number of electron     623.9999959 magnetization 
 augmentation part      212.9866354 magnetization 

 Broyden mixing:
  rms(total) = 0.43903E-03    rms(broyden)= 0.43885E-03
  rms(prec ) = 0.52519E-03
  weight for this iteration     100.00

 eigenvalues of (default mixing * dielectric matrix)
  average eigenvalue GAMMA=   1.5382
  3.9756  2.6826  2.3065  1.9187  1.0211  1.0211  0.8663  0.8663  0.9700  0.9700
  0.9300  0.9300

 Free energy of the ion-electron system (eV)
  ---------------------------------------------------
  alpha Z        PSCENC =      1434.42426354
  Ewald energy   TEWEN  =    868589.61700469
  -Hartree energ DENC   =   -931913.53046337
  -exchange      EXHF   =         0.00000000
  -V(xc)+E(xc)   XCENC  =      2797.26695453
  PAW double counting   =     78529.48028486   -79487.04002477
  entropy T*S    EENTRO =        -0.00000000
  eigenvalues    EBANDS =     -6518.01985345
  atomic energy  EATOM  =     66094.93779060
  Solvation  Ediel_sol  =         0.00000000
  ---------------------------------------------------
  free energy    TOTEN  =      -472.86404338 eV

  energy without entropy =     -472.86404338  energy(sigma->0) =     -472.86404338


--------------------------------------------------------------------------------------------------------




--------------------------------------- Iteration      1(  18)  ---------------------------------------


    POTLOK:  cpu time    0.1035: real time    0.1095
    SETDIJ:  cpu time    0.1159: real time    0.1162
     EDDAV:  cpu time    8.1580: real time    8.1894
       DOS:  cpu time    0.0006: real time    0.0006
    CHARGE:  cpu time    0.4902: real time    0.4913
    MIXING:  cpu time    0.0057: real time    0.0057
    --------------------------------------------
      LOOP:  cpu time    8.8740: real time    8.9128

 eigenvalue-minimisations  :  4816
 total energy-change (2. order) :-0.9180802E-04  (-0.3962209E-06)
 number of electron     623.9999959 magnetization 
 augmentation part      212.9866787 magnetization 

 Broyden mixing:
  rms(total) = 0.29479E-03    rms(broyden)= 0.29477E-03
  rms(prec ) = 0.35305E-03
  weight for this iteration     100.00

 eigenvalues of (default mixing * dielectric matrix)
  average eigenvalue GAMMA=   1.6018
  4.6864  2.7951  2.2930  2.2930  1.0928  1.0928  1.0220  0.9298  0.9298  0.8682
  0.8682  0.9759  0.9759

 Free energy of the ion-electron system (eV)
  ---------------------------------------------------
  alpha Z        PSCENC =      1434.42426354
  Ewald energy   TEWEN  =    868589.61700469
  -Hartree energ DENC   =   -931915.14421020
  -exchange      EXHF   =         0.00000000
  -V(xc)+E(xc)   XCENC  =      2797.26808846
  PAW double counting   =     78530.28751997   -79487.84190982
  entropy T*S    EENTRO =        -0.00000000
  eigenvalues    EBANDS =     -6516.41268241
  atomic energy  EATOM  =     66094.93779060
  Solvation  Ediel_sol  =         0.00000000
  ---------------------------------------------------
  free energy    TOTEN  =      -472.86413518 eV

  energy without entropy =     -472.86413518  energy(sigma->0) =     -472.86413518


--------------------------------------------------------------------------------------------------------




--------------------------------------- Iteration      1(  19)  ---------------------------------------


    POTLOK:  cpu time    0.1036: real time    0.1090
    SETDIJ:  cpu time    0.1148: real time    0.1151
     EDDAV:  cpu time    7.8518: real time    7.8721
       DOS:  cpu time    0.0006: real time    0.0006
    CHARGE:  cpu time    0.4882: real time    0.4894
    MIXING:  cpu time    0.0057: real time    0.0058
    --------------------------------------------
      LOOP:  cpu time    8.5649: real time    8.5920

 eigenvalue-minimisations  :  4840
 total energy-change (2. order) :-0.5976680E-04  (-0.3096460E-06)
 number of electron     623.9999959 magnetization 
 augmentation part      212.9866227 magnetization 

 Broyden mixing:
  rms(total) = 0.20730E-03    rms(broyden)= 0.20726E-03
  rms(prec ) = 0.24414E-03
  weight for this iteration     100.00

 eigenvalues of (default mixing * dielectric matrix)
  average eigenvalue GAMMA=   1.6330
  5.0241  3.0186  2.3807  2.3807  1.1874  1.1874  1.0186  1.0186  1.1042  0.8874
  0.8874  0.9350  0.9350  0.8963

 Free energy of the ion-electron system (eV)
  ---------------------------------------------------
  alpha Z        PSCENC =      1434.42426354
  Ewald energy   TEWEN  =    868589.61700469
  -Hartree energ DENC   =   -931916.36155365
  -exchange      EXHF   =         0.00000000
  -V(xc)+E(xc)   XCENC  =      2797.26918234
  PAW double counting   =     78530.53666368   -79488.09124045
  entropy T*S    EENTRO =        -0.00000000
  eigenvalues    EBANDS =     -6515.19630569
  atomic energy  EATOM  =     66094.93779060
  Solvation  Ediel_sol  =         0.00000000
  ---------------------------------------------------
  free energy    TOTEN  =      -472.86419495 eV

  energy without entropy =     -472.86419495  energy(sigma->0) =     -472.86419495


--------------------------------------------------------------------------------------------------------




--------------------------------------- Iteration      1(  20)  ---------------------------------------


    POTLOK:  cpu time    0.1079: real time    0.1087
    SETDIJ:  cpu time    0.1170: real time    0.1173
     EDDAV:  cpu time    7.5412: real time    7.5611
       DOS:  cpu time    0.0006: real time    0.0006
    CHARGE:  cpu time    0.4884: real time    0.4896
    MIXING:  cpu time    0.0058: real time    0.0059
    --------------------------------------------
      LOOP:  cpu time    8.2610: real time    8.2831

 eigenvalue-minimisations  :  4456
 total energy-change (2. order) :-0.3990474E-04  (-0.1001385E-06)
 number of electron     623.9999959 magnetization 
 augmentation part      212.9866615 magnetization 

 Broyden mixing:
  rms(total) = 0.13915E-03    rms(broyden)= 0.13913E-03
  rms(prec ) = 0.16272E-03
  weight for this iteration     100.00

 eigenvalues of (default mixing * dielectric matrix)
  average eigenvalue GAMMA=   1.6864
  5.4455  3.2415  2.5669  2.3286  1.8485  1.0979  1.0979  0.9898  0.9898  0.8714
  0.8714  0.9878  0.9878  0.9858  0.9858

 Free energy of the ion-electron system (eV)
  ---------------------------------------------------
  alpha Z        PSCENC =      1434.42426354
  Ewald energy   TEWEN  =    868589.61700469
  -Hartree energ DENC   =   -931917.16749006
  -exchange      EXHF   =         0.00000000
  -V(xc)+E(xc)   XCENC  =      2797.26927458
  PAW double counting   =     78530.21994010   -79487.77731551
  entropy T*S    EENTRO =        -0.00000000
  eigenvalues    EBANDS =     -6514.38770279
  atomic energy  EATOM  =     66094.93779060
  Solvation  Ediel_sol  =         0.00000000
  ---------------------------------------------------
  free energy    TOTEN  =      -472.86423485 eV

  energy without entropy =     -472.86423485  energy(sigma->0) =     -472.86423485


--------------------------------------------------------------------------------------------------------




--------------------------------------- Iteration      1(  21)  ---------------------------------------


    POTLOK:  cpu time    0.1039: real time    0.1093
    SETDIJ:  cpu time    0.1175: real time    0.1178
     EDDAV:  cpu time    7.4320: real time    7.4522
       DOS:  cpu time    0.0006: real time    0.0006
    CHARGE:  cpu time    0.5139: real time    0.5153
    MIXING:  cpu time    0.0071: real time    0.0071
    --------------------------------------------
      LOOP:  cpu time    8.1749: real time    8.2022

 eigenvalue-minimisations  :  4312
 total energy-change (2. order) :-0.2853676E-04  (-0.9526911E-07)
 number of electron     623.9999959 magnetization 
 augmentation part      212.9867352 magnetization 

 Broyden mixing:
  rms(total) = 0.79291E-04    rms(broyden)= 0.79278E-04
  rms(prec ) = 0.92914E-04
  weight for this iteration     100.00

 eigenvalues of (default mixing * dielectric matrix)
  average eigenvalue GAMMA=   1.7670
  6.2486  3.7602  2.7521  2.3040  2.3040  1.1516  1.1516  1.1050  0.9913  0.9913
  0.8756  0.8756  0.9878  0.9878  0.8924  0.8924

 Free energy of the ion-electron system (eV)
  ---------------------------------------------------
  alpha Z        PSCENC =      1434.42426354
  Ewald energy   TEWEN  =    868589.61700469
  -Hartree energ DENC   =   -931917.80408655
  -exchange      EXHF   =         0.00000000
  -V(xc)+E(xc)   XCENC  =      2797.26912566
  PAW double counting   =     78529.87442307   -79487.43486599
  entropy T*S    EENTRO =        -0.00000000
  eigenvalues    EBANDS =     -6513.74791840
  atomic energy  EATOM  =     66094.93779060
  Solvation  Ediel_sol  =         0.00000000
  ---------------------------------------------------
  free energy    TOTEN  =      -472.86426339 eV

  energy without entropy =     -472.86426339  energy(sigma->0) =     -472.86426339


--------------------------------------------------------------------------------------------------------




--------------------------------------- Iteration      1(  22)  ---------------------------------------


    POTLOK:  cpu time    0.1130: real time    0.1171
    SETDIJ:  cpu time    0.1168: real time    0.1171
     EDDAV:  cpu time    7.5377: real time    7.5603
       DOS:  cpu time    0.0005: real time    0.0005
[...]
   0.137E-13 0.598E-11 0.303E+04   0.342E-13 0.519E-13 -.303E+04   0.000E+00 -.207E-23 -.629E-02   0.452E-14 0.805E-13 -.549E-05
   0.650E-12 0.125E-11 0.305E+04   0.220E-13 0.590E-13 -.305E+04   0.000E+00 0.000E+00 -.457E-02   -.210E-13 0.198E-12 -.407E-05
   -.705E-14 0.138E-11 0.102E+04   0.219E-13 0.600E-13 -.102E+04   -.827E-24 -.129E-25 0.719E-02   -.109E-13 0.218E-12 -.822E-05
   0.650E-12 -.364E-12 0.101E+04   0.177E-13 -.114E-12 -.101E+04   0.000E+00 0.000E+00 0.101E-01   -.991E-14 -.419E-13 -.700E-05
   -.477E-14 0.267E-11 -.102E+04   0.287E-13 0.464E-13 0.102E+04   0.827E-24 0.000E+00 -.719E-02   0.593E-14 -.419E-13 0.822E-05
   0.641E-12 0.272E-11 -.101E+04   -.295E-13 -.121E-12 0.101E+04   0.000E+00 -.207E-24 -.101E-01   0.185E-13 0.118E-12 0.700E-05
   0.434E-15 -.429E-11 -.303E+04   0.455E-13 0.559E-13 0.303E+04   0.000E+00 0.000E+00 0.629E-02   -.401E-14 0.799E-13 0.549E-05
   0.629E-12 0.503E-11 -.305E+04   0.387E-13 0.568E-13 0.305E+04   0.000E+00 -.207E-24 0.457E-02   0.112E-13 -.120E-12 0.407E-05
   0.180E-13 -.201E-11 -.509E+04   -.351E-13 0.573E-13 0.509E+04   0.000E+00 0.000E+00 -.206E-01   0.113E-13 -.135E-12 -.161E-04
   0.670E-12 0.568E-11 -.505E+04   0.588E-13 0.103E-12 0.505E+04   0.000E+00 0.000E+00 -.108E-01   0.856E-14 0.135E-12 -.187E-04
   0.296E-13 0.560E-11 -.706E+04   0.289E-13 -.567E-13 0.706E+04   0.414E-24 0.165E-23 0.294E+00   0.500E-14 0.834E-13 0.150E-04
   0.609E-12 0.746E-11 -.713E+04   0.824E-14 -.502E-13 0.713E+04   0.000E+00 0.414E-24 -.938E-01   0.103E-13 -.887E-13 0.182E-04
   0.923E-14 0.246E-11 -.918E+04   0.134E-13 -.355E-14 0.918E+04   -.227E-23 0.000E+00 -.235E+01   -.443E-14 -.191E-12 0.541E-04
   0.661E-12 0.423E-11 -.907E+04   0.429E-13 0.000E+00 0.907E+04   0.517E-25 0.000E+00 0.108E+01   0.182E-13 0.149E-12 0.662E-04
   0.240E-14 -.133E-10 -.111E+05   0.212E-13 0.000E+00 0.111E+05   0.000E+00 0.000E+00 0.418E+01   -.106E-13 0.497E-13 -.604E-04
   0.668E-12 0.114E-10 -.110E+05   -.842E-13 -.114E-12 0.110E+05   0.248E-23 -.132E-22 -.709E+01   0.245E-13 -.347E-14 -.149E-03
   -.587E-14 0.456E-11 0.438E+04   -.124E-14 0.138E-13 -.438E+04   0.000E+00 0.207E-24 0.289E+01   -.196E-13 0.147E-12 0.223E-04
   0.799E-14 -.893E-12 0.507E+04   0.176E-13 0.720E-14 -.510E+04   0.000E+00 -.132E-22 0.271E+02   0.108E-13 0.871E-13 0.111E-03
   0.101E-12 -.260E+02 0.479E+04   -.523E-13 0.341E+02 -.480E+04   0.000E+00 -.803E+01 0.531E+01   0.297E-14 -.266E-04 0.444E-04
   0.102E-12 0.260E+02 0.479E+04   0.952E-13 -.341E+02 -.480E+04   0.000E+00 0.803E+01 0.531E+01   0.186E-14 0.266E-04 0.444E-04
   -.283E-13 0.160E-11 0.351E+04   -.153E-13 0.738E-14 -.351E+04   0.000E+00 0.000E+00 -.432E+01   -.909E-14 0.490E-14 -.200E-04
   -.111E-13 -.842E-12 0.427E+04   -.326E-13 -.138E-13 -.426E+04   -.129E-25 0.000E+00 -.175E+01   0.492E-14 0.737E-13 -.162E-04
   0.135E-12 -.377E+02 0.391E+04   -.198E-13 0.394E+02 -.391E+04   0.000E+00 -.179E+01 -.198E+00   0.932E-15 -.221E-05 -.219E-04
   0.136E-12 0.377E+02 0.391E+04   0.146E-13 -.394E+02 -.391E+04   0.347E-17 0.179E+01 -.198E+00   0.144E-13 0.221E-05 -.219E-04
   -.125E-13 0.174E-11 0.266E+04   -.165E-14 -.144E-16 -.266E+04   0.000E+00 -.124E-23 -.276E+01   -.137E-13 0.147E-12 0.671E-05
   -.663E-14 0.946E-13 0.345E+04   0.623E-14 0.791E-14 -.345E+04   0.000E+00 -.414E-24 0.474E+01   0.144E-13 0.160E-12 -.246E-04
   0.121E-12 -.569E+02 0.304E+04   0.725E-13 0.604E+02 -.304E+04   0.347E-17 -.343E+01 -.463E-01   0.384E-14 -.419E-05 -.771E-05
   0.104E-12 0.569E+02 0.304E+04   -.818E-13 -.604E+02 -.304E+04   -.694E-17 0.343E+01 -.463E-01   0.124E-13 0.419E-05 -.771E-05
   0.619E-15 -.785E-12 0.178E+04   -.973E-14 -.667E-14 -.178E+04   0.103E-24 0.414E-24 -.334E+01   -.727E-14 -.946E-14 0.467E-05
   -.212E-13 -.338E-11 0.255E+04   -.360E-13 0.668E-14 -.255E+04   -.517E-25 -.103E-23 0.239E+01   0.628E-14 0.121E-13 0.998E-06
   0.140E-12 -.474E+02 0.218E+04   0.333E-13 0.505E+02 -.218E+04   0.000E+00 -.310E+01 0.201E-01   0.520E-14 -.437E-05 0.700E-05
   0.161E-12 0.474E+02 0.218E+04   -.171E-13 -.505E+02 -.218E+04   0.000E+00 0.310E+01 0.201E-01   0.475E-14 0.437E-05 0.700E-05
   -.199E-13 -.252E-11 0.920E+03   0.181E-13 -.661E-14 -.917E+03   -.103E-24 0.000E+00 -.296E+01   0.291E-14 0.136E-12 -.496E-05
   -.273E-13 -.360E-11 0.170E+04   -.131E-13 0.208E-13 -.170E+04   0.000E+00 0.827E-24 0.353E+01   0.497E-14 0.140E-12 0.173E-05
   0.124E-12 -.519E+02 0.130E+04   -.643E-13 0.551E+02 -.130E+04   0.000E+00 -.320E+01 -.341E-02   -.144E-14 0.245E-05 -.127E-05
   0.130E-12 0.519E+02 0.130E+04   0.501E-13 -.551E+02 -.130E+04   0.000E+00 0.320E+01 -.341E-02   -.314E-14 -.245E-05 -.127E-05
   0.924E-14 0.498E-11 0.452E+02   0.138E-13 0.148E-13 -.419E+02   0.000E+00 0.103E-23 -.329E+01   0.445E-14 -.559E-14 -.279E-05
   -.111E-13 0.330E-11 0.818E+03   -.258E-13 -.673E-14 -.821E+03   0.000E+00 0.000E+00 0.288E+01   -.817E-14 0.398E-13 -.116E-05
   0.138E-12 -.500E+02 0.436E+03   0.439E-13 0.532E+02 -.436E+03   -.347E-17 -.316E+01 0.134E-01   0.112E-13 0.248E-05 -.249E-05
   0.112E-12 0.500E+02 0.436E+03   -.686E-13 -.532E+02 -.436E+03   0.694E-17 0.316E+01 0.134E-01   -.534E-14 -.248E-05 -.249E-05
   -.713E-14 -.347E-11 -.818E+03   -.249E-13 0.269E-15 0.821E+03   0.000E+00 0.000E+00 -.288E+01   0.169E-13 0.789E-13 0.116E-05
   0.789E-15 -.550E-11 -.452E+02   0.123E-13 0.140E-13 0.419E+02   0.000E+00 0.207E-24 0.329E+01   0.679E-15 0.125E-12 0.279E-05
   0.114E-12 -.500E+02 -.436E+03   0.562E-13 0.532E+02 0.436E+03   -.694E-17 -.316E+01 -.134E-01   0.118E-13 0.248E-05 0.249E-05
   0.141E-12 0.500E+02 -.436E+03   -.636E-13 -.532E+02 0.436E+03   0.347E-17 0.316E+01 -.134E-01   0.340E-14 -.248E-05 0.249E-05
   -.249E-13 0.326E-11 -.170E+04   -.242E-13 0.647E-14 0.170E+04   0.000E+00 0.000E+00 -.353E+01   0.521E-14 -.220E-13 -.173E-05
   -.172E-13 0.203E-11 -.920E+03   0.134E-13 -.626E-14 0.917E+03   0.103E-24 -.165E-23 0.296E+01   0.117E-13 -.211E-13 0.496E-05
   0.141E-12 -.519E+02 -.130E+04   -.686E-13 0.551E+02 0.130E+04   0.000E+00 -.320E+01 0.341E-02   0.108E-13 0.245E-05 0.127E-05
   0.120E-12 0.519E+02 -.130E+04   0.508E-13 -.551E+02 0.130E+04   0.000E+00 0.320E+01 0.341E-02   0.767E-14 -.245E-05 0.127E-05
   -.917E-14 0.396E-11 -.255E+04   -.344E-13 0.203E-13 0.255E+04   0.000E+00 0.000E+00 -.239E+01   0.103E-13 0.108E-12 -.998E-06
   -.201E-13 0.606E-12 -.178E+04   0.138E-14 0.808E-14 0.178E+04   -.517E-25 0.000E+00 0.334E+01   0.862E-14 0.122E-12 -.467E-05
   0.168E-12 -.474E+02 -.218E+04   0.380E-13 0.505E+02 0.218E+04   0.000E+00 -.310E+01 -.201E-01   0.162E-14 -.437E-05 -.700E-05
   0.150E-12 0.474E+02 -.218E+04   -.118E-13 -.505E+02 0.218E+04   0.000E+00 0.310E+01 -.201E-01   0.333E-14 0.437E-05 -.700E-05
   -.988E-14 0.550E-13 -.345E+04   -.426E-14 0.666E-14 0.345E+04   0.000E+00 0.000E+00 -.474E+01   -.181E-15 -.297E-13 0.246E-04
   -.408E-14 -.173E-11 -.266E+04   -.141E-13 0.136E-13 0.266E+04   0.000E+00 0.103E-23 0.276E+01   0.332E-14 -.271E-13 -.671E-05
   0.112E-12 -.569E+02 -.304E+04   0.534E-13 0.604E+02 0.304E+04   0.694E-17 -.343E+01 0.463E-01   -.857E-15 -.419E-05 0.771E-05
   0.135E-12 0.569E+02 -.304E+04   -.101E-12 -.604E+02 0.304E+04   -.347E-17 0.343E+01 0.463E-01   0.415E-14 0.419E-05 0.771E-05
   -.133E-14 0.208E-11 -.427E+04   -.302E-13 0.000E+00 0.426E+04   0.000E+00 -.247E-23 0.175E+01   0.108E-13 0.422E-13 0.162E-04
   -.874E-14 -.202E-11 -.351E+04   -.146E-14 -.755E-14 0.351E+04   0.000E+00 -.127E-23 0.432E+01   -.646E-14 0.987E-13 0.200E-04
   0.143E-12 -.377E+02 -.391E+04   -.205E-14 0.394E+02 0.391E+04   -.347E-17 -.179E+01 0.198E+00   0.152E-14 -.221E-05 0.219E-04
   0.146E-12 0.377E+02 -.391E+04   0.309E-13 -.394E+02 0.391E+04   0.000E+00 0.179E+01 0.198E+00   0.176E-13 0.221E-05 0.219E-04
   -.175E-14 0.750E-12 -.507E+04   0.247E-13 0.711E-14 0.510E+04   0.000E+00 0.132E-22 -.271E+02   0.369E-14 -.862E-13 -.111E-03
   -.120E-13 -.372E-11 -.438E+04   -.235E-13 0.000E+00 0.438E+04   0.414E-24 0.000E+00 -.289E+01   0.262E-14 -.263E-13 -.223E-04
   0.101E-12 -.260E+02 -.479E+04   -.495E-13 0.341E+02 0.480E+04   0.000E+00 -.803E+01 -.531E+01   0.324E-14 -.266E-04 -.444E-04
   0.105E-12 0.260E+02 -.479E+04   0.980E-13 -.341E+02 0.480E+04   0.000E+00 0.803E+01 -.531E+01   0.153E-13 0.266E-04 -.444E-04
 -----------------------------------------------------------------------------------------------
   0.107E-10 0.346E-10 -.337E-09   0.126E-12 0.121E-12 -.291E-10   0.107E-23 0.000E+00 0.355E-14   0.176E-12 0.228E-11 -.766E-10
 
 
 POSITION                                       TOTAL-FORCE (eV/Angst)
 -----------------------------------------------------------------------------------
      0.00000      5.06228     11.95162         0.000000      0.000000     -0.003055
      1.60808      1.68743     11.62335         0.000000      0.000000     -0.003134
      0.00000      1.68743     15.12337         0.000000      0.000000     -0.006200
      1.60808      5.06228     15.28504         0.000000      0.000000     -0.003067
      0.00000      5.06228     18.61852         0.000000      0.000000     -0.008805
      1.60808      1.68743     18.53408         0.000000      0.000000     -0.007767
      0.00000      1.68743     21.92405         0.000000      0.000000     -0.005652
      1.60808      5.06228     21.97074         0.000000      0.000000     -0.002101
      0.00000      5.06228     25.33229         0.000000      0.000000      0.001168
      1.60808      1.68743     25.30433         0.000000      0.000000     -0.000296
      0.00000      1.68743     28.67814         0.000000      0.000000      0.000038
      1.60808      5.06228     28.69855         0.000000      0.000000     -0.001007
      0.00000      5.06228     32.06921         0.000000      0.000000     -0.000038
      1.60808      1.68743     32.04879         0.000000      0.000000      0.001007
      0.00000      1.68743     35.41505         0.000000      0.000000     -0.001168
      1.60808      5.06228     35.44302         0.000000      0.000000      0.000296
      0.00000      5.06228     38.82329         0.000000      0.000000      0.005652
      1.60808      1.68743     38.77660         0.000000      0.000000      0.002101
      0.00000      1.68743     42.12882         0.000000      0.000000      0.008805
      1.60808      5.06228     42.21327         0.000000      0.000000      0.007767
      0.00000      5.06228     45.62398         0.000000      0.000000      0.006200
      1.60808      1.68743     45.46230         0.000000      0.000000      0.003067
      0.00000      1.68743     48.79572         0.000000      0.000000      0.003055
      1.60808      5.06228     49.12399         0.000000      0.000000      0.003134
      0.00000      1.68743     13.07743         0.000000      0.000000     -0.006252
      0.00000      1.68743     10.44583         0.000000      0.000000     -0.003814
      1.60808      6.31368     11.66670         0.000000     -0.000464     -0.003735
      1.60808      3.81088     11.66670        -0.000000      0.000464     -0.003735
      0.00000      5.06228     16.55557        -0.000000      0.000000     -0.004124
      0.00000      5.06228     13.95041         0.000000      0.000000     -0.007993
      1.60808      3.00902     15.19597         0.000000      0.000156     -0.004656
      1.60808      0.36583     15.19597         0.000000     -0.000156     -0.004656
      0.00000      1.68743     19.85504         0.000000      0.000000     -0.002272
      0.00000      1.68743     17.22414         0.000000      0.000000     -0.004630
      1.60808      6.36809     18.58748        -0.000000      0.000248     -0.009333
      1.60808      3.75647     18.58748         0.000000     -0.000248     -0.009333
      0.00000      5.06228     23.26943         0.000000      0.000000      0.000334
      0.00000      5.06228     20.66726         0.000000      0.000000      0.001753
      1.60808      2.99599     21.94107         0.000000      0.000654     -0.001402
      1.60808      0.37886     21.94107         0.000000     -0.000654     -0.001402
      0.00000      1.68743     26.61392         0.000000      0.000000     -0.000510
      0.00000      1.68743     23.99729         0.000000      0.000000     -0.000918
      1.60808      6.37003     25.32194         0.000000      0.000013      0.001292
      1.60808      3.75453     25.32194         0.000000     -0.000013      0.001292
      0.00000      5.06228     30.00294         0.000000      0.000000     -0.000581
      0.00000      5.06228     27.39226         0.000000      0.000000      0.000078
      1.60808      2.99554     28.68543        -0.000000     -0.000082     -0.001390
      1.60808      0.37931     28.68543         0.000000      0.000082     -0.001390
      0.00000      1.68743     33.35508        -0.000000      0.000000     -0.000078
      0.00000      1.68743     30.74440         0.000000      0.000000      0.000581
      1.60808      6.37039     32.06191         0.000000     -0.000082      0.001390
      1.60808      3.75417     32.06191         0.000000      0.000082      0.001390
      0.00000      5.06228     36.75006         0.000000      0.000000      0.000918
      0.00000      5.06228     34.13342         0.000000      0.000000      0.000510
      1.60808      2.99517     35.42541         0.000000      0.000013     -0.001292
      1.60808      0.37968     35.42541         0.000000     -0.000013     -0.001292
      0.00000      1.68743     40.08008         0.000000      0.000000     -0.001753
      0.00000      1.68743     37.47792         0.000000      0.000000     -0.000334
      1.60808      6.37085     38.80627         0.000000      0.000654      0.001402
      1.60808      3.75371     38.80627         0.000000     -0.000654      0.001402
      0.00000      5.06228     43.52321         0.000000      0.000000      0.004630
      0.00000      5.06228     40.89230         0.000000      0.000000      0.002272
      1.60808      2.99324     42.15987         0.000000      0.000248      0.009333
      1.60808      0.38161     42.15987         0.000000     -0.000248      0.009333
      0.00000      1.68743     46.79693         0.000000      0.000000      0.007993
      0.00000      1.68743     44.19178         0.000000      0.000000      0.004124
      1.60808      6.38387     45.55138         0.000000      0.000156      0.004656
      1.60808      3.74069     45.55138         0.000000     -0.000156      0.004656
      0.00000      5.06228     50.30151         0.000000      0.000000      0.003814
      0.00000      5.06228     47.66991         0.000000      0.000000      0.006252
      1.60808      2.93883     49.08065        -0.000000     -0.000464      0.003735
      1.60808      0.43603     49.08065         0.000000      0.000464      0.003735
 -----------------------------------------------------------------------------------
    total drift:                                0.000000      0.000000     -0.000000


--------------------------------------------------------------------------------------------------------



  FREE ENERGIE OF THE ION-ELECTRON SYSTEM (eV)
  ---------------------------------------------------
  free  energy   TOTEN  =      -472.86430467 eV

  energy  without entropy=     -472.86430467  energy(sigma->0) =     -472.86430467
 


--------------------------------------------------------------------------------------------------------


    POTLOK:  cpu time    0.2330: real time    0.2337


--------------------------------------------------------------------------------------------------------


     LOOP+:  cpu time  285.5266: real time  286.5989
    4ORBIT:  cpu time    0.0000: real time    0.0000
 


 total charge     
 
# of ion       s       p       d       tot
------------------------------------------
    1        0.930   1.073  10.309  12.312
    2        0.917   1.072  10.335  12.323
    3        0.890   1.067  10.352  12.309
    4        0.885   1.092  10.374  12.351
    5        0.884   1.091  10.373  12.348
    6        0.885   1.074  10.359  12.318
    7        0.884   1.077  10.363  12.324
    8        0.884   1.086  10.370  12.339
    9        0.884   1.085  10.369  12.338
   10        0.884   1.081  10.365  12.330
   11        0.884   1.082  10.366  12.332
   12        0.884   1.083  10.367  12.334
   13        0.884   1.082  10.366  12.332
   14        0.884   1.083  10.367  12.334
   15        0.884   1.085  10.369  12.338
   16        0.884   1.081  10.365  12.330
   17        0.884   1.077  10.363  12.324
   18        0.884   1.086  10.370  12.339
   19        0.884   1.091  10.373  12.348
   20        0.885   1.074  10.359  12.318
   21        0.890   1.067  10.352  12.309
   22        0.885   1.092  10.374  12.351
   23        0.930   1.073  10.309  12.312
   24        0.917   1.072  10.335  12.323
   25        1.559   3.434   0.000   4.992
   26        1.569   3.399   0.000   4.969
   27        1.564   3.444   0.000   5.008
   28        1.564   3.444   0.000   5.008
   29        1.554   3.493   0.000   5.048
   30        1.554   3.493   0.000   5.047
   31        1.554   3.478   0.000   5.032
   32        1.554   3.478   0.000   5.032
   33        1.554   3.476   0.000   5.030
   34        1.554   3.469   0.000   5.023
   35        1.554   3.481   0.000   5.035
   36        1.554   3.481   0.000   5.035
   37        1.554   3.484   0.000   5.038
   38        1.554   3.488   0.000   5.041
   39        1.554   3.480   0.000   5.034
   40        1.554   3.480   0.000   5.034
   41        1.554   3.481   0.000   5.035
   42        1.554   3.479   0.000   5.032
   43        1.554   3.481   0.000   5.034
   44        1.554   3.481   0.000   5.034
   45        1.554   3.482   0.000   5.035
   46        1.554   3.483   0.000   5.037
   47        1.554   3.480   0.000   5.034
   48        1.554   3.480   0.000   5.034
   49        1.554   3.483   0.000   5.037
   50        1.554   3.482   0.000   5.035
   51        1.554   3.480   0.000   5.034
   52        1.554   3.480   0.000   5.034
   53        1.554   3.479   0.000   5.032
   54        1.554   3.481   0.000   5.035
   55        1.554   3.481   0.000   5.034
   56        1.554   3.481   0.000   5.034
   57        1.554   3.488   0.000   5.041
   58        1.554   3.484   0.000   5.038
   59        1.554   3.480   0.000   5.034
   60        1.554   3.480   0.000   5.034
   61        1.554   3.469   0.000   5.023
   62        1.554   3.476   0.000   5.030
   63        1.554   3.481   0.000   5.035
   64        1.554   3.481   0.000   5.035
   65        1.554   3.493   0.000   5.047
   66        1.554   3.493   0.000   5.048
   67        1.554   3.478   0.000   5.032
   68        1.554   3.478   0.000   5.032
   69        1.569   3.399   0.000   4.969
   70        1.559   3.434   0.000   4.992
   71        1.564   3.444   0.000   5.008
   72        1.564   3.444   0.000   5.008
--------------------------------------------------
tot         96.056 192.619 248.602 537.276
 

 total amount of memory used by VASP MPI-rank0   113569. kBytes
=======================================================================

   base      :      30000. kBytes
   nonlr-proj:      12141. kBytes
   fftplans  :       8723. kBytes
   grid      :      14742. kBytes
   one-center:        124. kBytes
   wavefun   :      47839. kBytes
 
  
  
 General timing and accounting informations for this job:
 ========================================================
  
                  Total CPU time used (sec):      308.255
                            User time (sec):      303.769
                          System time (sec):        4.486
                         Elapsed time (sec):      311.503
  
                   Maximum memory used (kb):      202800.
                   Average memory used (kb):           0.
  
                          Minor page faults:       121099
                          Major page faults:            4
                 Voluntary context switches:         7644
