 vasp.5.4.4.18Apr17-6-g9f103f2a35 (build Dec 11 2019 11:16:07) complex          
  
 executed on             LinuxIFC date 2020.12.10  14:59:27
 running on   80 total cores
 distrk:  each k-point on   40 cores,    2 groups
 distr:  one band on NCORES_PER_BAND=  10 cores,    4 groups


--------------------------------------------------------------------------------------------------------


 INCAR:
 POTCAR:    PAW_PBE Sn_d 06Sep2000                
 POTCAR:    PAW_PBE O 08Apr2002                   

 ----------------------------------------------------------------------------- 
|                                                                             |
|           W    W    AA    RRRRR   N    N  II  N    N   GGGG   !!!           |
|           W    W   A  A   R    R  NN   N  II  NN   N  G    G  !!!           |
|           W    W  A    A  R    R  N N  N  II  N N  N  G       !!!           |
|           W WW W  AAAAAA  RRRRR   N  N N  II  N  N N  G  GGG   !            |
|           WW  WW  A    A  R   R   N   NN  II  N   NN  G    G                |
|           W    W  A    A  R    R  N    N  II  N    N   GGGG   !!!           |
|                                                                             |
|      You have enabled k-point parallelism (KPAR>1).                         |
|      This developmental code was originally  written by Paul Kent at ORNL,  |
|      and carefully double checked in Vienna.                                |
|      GW as well as linear response parallelism added by Martijn Marsman     |
|      and Georg Kresse.                                                      |
|      Carefully verify results versus KPAR=1.                                |
|      Report problems to Paul Kent and Vienna.                               |
|                                                                             |
 ----------------------------------------------------------------------------- 

 POTCAR:    PAW_PBE Sn_d 06Sep2000                
   VRHFIN =Sn: s2p2                                                             
   LEXCH  = PE                                                                  
   EATOM  =  1893.1092 eV,  139.1396 Ry                                         
                                                                                
   TITEL  = PAW_PBE Sn_d 06Sep2000                                              
   LULTRA =        F    use ultrasoft PP ?                                      
   IUNSCR =        1    unscreen: 0-lin 1-nonlin 2-no                           
   RPACOR =    2.300    partial core radius                                     
   POMASS =  118.710; ZVAL   =   14.000    mass and valenz                      
   RCORE  =    2.500    outmost cutoff radius                                   
   RWIGS  =    2.960; RWIGS  =    1.566    wigner-seitz radius (au A)           
   ENMAX  =  241.083; ENMIN  =  180.812 eV                                      
   ICORE  =        3    local potential                                         
   LCOR   =        T    correct aug charges                                     
   LPAW   =        T    paw PP                                                  
   EAUG   =  439.825                                                            
   DEXC   =    0.000                                                            
   RMAX   =    2.560    core radius for proj-oper                               
   RAUG   =    1.300    factor for augmentation sphere                          
   RDEP   =    2.659    radius for radial grids                                 
   RDEPT  =    2.046    core radius for aug-charge                              
                                                                                
   Atomic configuration                                                         
   12 entries                                                                   
     n  l   j            E        occ.                                          
     1  0  0.50    -29007.2859   2.0000                                         
     2  0  0.50     -4378.8056   2.0000                                         
     2  1  1.50     -3930.4293   6.0000                                         
     3  0  0.50      -845.0264   2.0000                                         
     3  1  1.50      -698.5725   6.0000                                         
     3  2  2.50      -473.2839  10.0000                                         
     4  0  0.50      -133.9036   2.0000                                         
     4  1  1.50       -89.6752   6.0000                                         
     4  2  2.50       -25.8375  10.0000                                         
     5  0  0.50       -10.5484   2.0000                                         
     5  1  0.50        -3.6940   2.0000                                         
     4  3  2.50        -2.7416   0.0000                                         
   Description                                                                  
     l       E           TYP  RCUT    TYP  RCUT                                 
     2    -25.8374624     23  2.500                                             
     2     -5.4423304     23  2.500                                             
     0    -10.5483727     23  2.500                                             
     0     13.6058260     23  2.500                                             
     1     -3.6939829     23  2.500                                             
     1      1.9821976     23  2.500                                             
     3     -1.3605826      7  2.500                                             
  local pseudopotential read in
  partial core-charges read in
  partial kinetic energy density read in
  atomic valenz-charges read in
  non local Contribution for L=           2  read in
    real space projection operators read in
  non local Contribution for L=           2  read in
    real space projection operators read in
  non local Contribution for L=           0  read in
    real space projection operators read in
  non local Contribution for L=           0  read in
    real space projection operators read in
  non local Contribution for L=           1  read in
    real space projection operators read in
  non local Contribution for L=           1  read in
    real space projection operators read in
    PAW grid and wavefunctions read in
 
   number of l-projection  operators is LMAX  =           6
   number of lm-projection operators is LMMAX =          18
 
 POTCAR:    PAW_PBE O 08Apr2002                   
   VRHFIN =O: s2p4                                                              
   LEXCH  = PE                                                                  
   EATOM  =   432.3788 eV,   31.7789 Ry                                         
                                                                                
   TITEL  = PAW_PBE O 08Apr2002                                                 
   LULTRA =        F    use ultrasoft PP ?                                      
   IUNSCR =        1    unscreen: 0-lin 1-nonlin 2-no                           
   RPACOR =    1.200    partial core radius                                     
   POMASS =   16.000; ZVAL   =    6.000    mass and valenz                      
   RCORE  =    1.520    outmost cutoff radius                                   
   RWIGS  =    1.550; RWIGS  =    0.820    wigner-seitz radius (au A)           
   ENMAX  =  400.000; ENMIN  =  300.000 eV                                      
   ICORE  =        2    local potential                                         
   LCOR   =        T    correct aug charges                                     
   LPAW   =        T    paw PP                                                  
   EAUG   =  605.392                                                            
   DEXC   =    0.000                                                            
   RMAX   =    1.553    core radius for proj-oper                               
   RAUG   =    1.300    factor for augmentation sphere                          
   RDEP   =    1.550    radius for radial grids                                 
   RDEPT  =    1.329    core radius for aug-charge                              
                                                                                
   Atomic configuration                                                         
    4 entries                                                                   
     n  l   j            E        occ.                                          
     1  0  0.50      -514.6923   2.0000                                         
     2  0  0.50       -23.9615   2.0000                                         
     2  1  0.50        -9.0305   4.0000                                         
     3  2  1.50        -9.5241   0.0000                                         
   Description                                                                  
     l       E           TYP  RCUT    TYP  RCUT                                 
     0    -23.9615318     23  1.200                                             
     0     -9.5240782     23  1.200                                             
     1     -9.0304911     23  1.520                                             
     1      8.1634956     23  1.520                                             
     2     -9.5240782      7  1.500                                             
  local pseudopotential read in
  partial core-charges read in
  partial kinetic energy density read in
  kinetic energy density of atom read in
  atomic valenz-charges read in
  non local Contribution for L=           0  read in
    real space projection operators read in
  non local Contribution for L=           0  read in
    real space projection operators read in
  non local Contribution for L=           1  read in
    real space projection operators read in
  non local Contribution for L=           1  read in
    real space projection operators read in
    PAW grid and wavefunctions read in
 
   number of l-projection  operators is LMAX  =           4
   number of lm-projection operators is LMMAX =           8
 
 Optimization of the real space projectors (new method)

 maximal supplied QI-value         = 15.12
 optimisation between [QCUT,QGAM] = [ 11.94, 23.89] = [ 39.94,159.77] Ry 
 Optimized for a Real-space Cutoff    1.41 Angstroem

   l    n(q)    QCUT    max X(q) W(low)/X(q) W(high)/X(q)  e(spline) 
   2      9    11.943     5.880    0.64E-04    0.29E-05    0.11E-06
   2      9    11.943     7.804    0.16E-03    0.49E-04    0.17E-06
   0     10    11.943    20.557    0.63E-04    0.33E-04    0.47E-07
   0     10    11.943     9.400    0.78E-04    0.42E-04    0.59E-07
   1     10    11.943    94.178    0.54E-04    0.37E-04    0.13E-06
   1     10    11.943    56.401    0.52E-04    0.35E-04    0.13E-06
 Optimization of the real space projectors (new method)

 maximal supplied QI-value         = 24.76
 optimisation between [QCUT,QGAM] = [ 11.88, 24.01] = [ 39.54,161.47] Ry 
 Optimized for a Real-space Cutoff    1.18 Angstroem

   l    n(q)    QCUT    max X(q) W(low)/X(q) W(high)/X(q)  e(spline) 
   0      8    11.883    20.381    0.86E-04    0.11E-03    0.31E-06
   0      8    11.883    15.268    0.94E-04    0.12E-03    0.33E-06
   1      8    11.883     5.964    0.19E-03    0.18E-04    0.33E-06
   1      8    11.883     5.382    0.17E-03    0.20E-04    0.29E-06

 ----------------------------------------------------------------------------- 
|                                                                             |
|  ADVICE TO THIS USER RUNNING 'VASP/VAMP'   (HEAR YOUR MASTER'S VOICE ...):  |
|                                                                             |
|      You enforced a specific xc-type in the INCAR file,                     |
|      a different type was found on the POTCAR file                          |
|          I HOPE YOU KNOW, WHAT YOU ARE  DOING                               |
|                                                                             |
 ----------------------------------------------------------------------------- 

  PAW_PBE Sn_d 06Sep2000                :
 energy of atom  1       EATOM=-1893.1092
 kinetic energy error for atom=    0.0016 (will be added to EATOM!!)
  PAW_PBE O 08Apr2002                   :
 energy of atom  2       EATOM= -432.3788
 kinetic energy error for atom=    0.0194 (will be added to EATOM!!)
 
 
 POSCAR: Sn24 O48                                
  positions in direct lattice
  velocities in cartesian coordinates
 exchange correlation table for  LEXCH =       14
   RHO(1)=    0.500       N(1)  =     2000
   RHO(2)=  100.500       N(2)  =     4000
 


--------------------------------------------------------------------------------------------------------


 ion  position               nearest neighbor table
   1  0.959  0.141  0.226-  27 1.98  26 2.02  31 2.03  28 2.15  25 2.16   3 3.22   2 3.50   2 3.50
                             4 3.59
   2  0.541  0.641  0.226-  26 1.98  27 2.02  30 2.03  25 2.15  28 2.16   4 3.22   1 3.50   1 3.50
                             3 3.59
   3  0.008  0.453  0.275-  29 2.05  30 2.06  32 2.06  31 2.07  35 2.09  28 2.12   5 3.22   1 3.22
                             2 3.59   4 3.69   4 3.69   6 3.74
   4  0.492  0.953  0.275-  32 2.05  31 2.06  29 2.06  30 2.07  34 2.09  25 2.12   6 3.22   2 3.22
                             1 3.59   3 3.69   3 3.69   5 3.74
   5  0.997  0.751  0.325-  35 2.07  34 2.07  39 2.07  33 2.08  36 2.08  32 2.08   7 3.21   3 3.22
                             6 3.72   6 3.72   8 3.73   4 3.74   8 3.74   6 3.76   6 3.76
   6  0.503  0.251  0.325-  34 2.07  35 2.07  38 2.07  36 2.08  33 2.08  29 2.08   8 3.21   4 3.22
                             5 3.72   5 3.72   7 3.73   3 3.74   7 3.74   5 3.76   5 3.76
   7  0.001  0.051  0.375-  37 2.07  38 2.07  40 2.07  39 2.07  43 2.07  36 2.07   5 3.21   9 3.22
                             6 3.73   8 3.73   8 3.73  10 3.74  10 3.74   8 3.74   8 3.74   6 3.74
   8  0.499  0.551  0.375-  40 2.07  39 2.07  37 2.07  38 2.07  42 2.07  33 2.07   6 3.21  10 3.22
                             5 3.73   7 3.73   7 3.73   9 3.74   9 3.74   7 3.74   7 3.74   5 3.74
   9  1.000  0.350  0.425-  42 2.07  41 2.07  43 2.07  47 2.07  44 2.07  40 2.07   7 3.22  11 3.22
                            10 3.74  10 3.74  12 3.74   8 3.74  12 3.74  10 3.74  10 3.74   8 3.74
  10  0.500  0.850  0.425-  43 2.07  44 2.07  42 2.07  46 2.07  41 2.07  37 2.07   8 3.22  12 3.22
                             9 3.74   9 3.74  11 3.74   7 3.74  11 3.74   9 3.74   9 3.74   7 3.74
  11  0.000  0.650  0.475-  45 2.07  46 2.07  48 2.07  47 2.07  51 2.07  44 2.07   9 3.22  13 3.22
                            10 3.74  12 3.74  12 3.74  14 3.74  14 3.74  12 3.74  12 3.74  10 3.74
  12  0.500  0.150  0.475-  48 2.07  47 2.07  45 2.07  46 2.07  50 2.07  41 2.07  10 3.22  14 3.22
                             9 3.74  11 3.74  11 3.74  13 3.74  13 3.74  11 3.74  11 3.74   9 3.74
  13  1.000  0.950  0.525-  50 2.07  49 2.07  51 2.07  52 2.07  48 2.07  55 2.07  15 3.22  11 3.22
                            16 3.74  14 3.74  14 3.74  12 3.74  12 3.74  14 3.74  14 3.74  16 3.74
  14  0.500  0.450  0.525-  51 2.07  52 2.07  50 2.07  49 2.07  45 2.07  54 2.07  16 3.22  12 3.22
                            15 3.74  13 3.74  13 3.74  11 3.74  11 3.74  13 3.74  13 3.74  15 3.74
  15  0.000  0.250  0.575-  53 2.07  54 2.07  56 2.07  52 2.07  55 2.07  59 2.07  17 3.22  13 3.22
                            16 3.74  16 3.74  14 3.74  18 3.74  14 3.74  16 3.74  16 3.74  18 3.74
  16  0.500  0.750  0.575-  56 2.07  55 2.07  53 2.07  49 2.07  54 2.07  58 2.07  18 3.22  14 3.22
                            15 3.74  15 3.74  13 3.74  17 3.74  13 3.74  15 3.74  15 3.74  17 3.74
  17  0.999  0.549  0.625-  58 2.07  57 2.07  59 2.07  60 2.07  56 2.07  63 2.07  19 3.21  15 3.22
                            20 3.73  18 3.73  18 3.73  16 3.74  16 3.74  18 3.74  18 3.74  20 3.74
  18  0.501  0.049  0.625-  59 2.07  60 2.07  58 2.07  57 2.07  53 2.07  62 2.07  20 3.21  16 3.22
                            19 3.73  17 3.73  17 3.73  15 3.74  15 3.74  17 3.74  17 3.74  19 3.74
  19  0.003  0.849  0.675-  64 2.07  61 2.07  60 2.07  62 2.08  63 2.08  67 2.08  17 3.21  21 3.22
                            20 3.72  20 3.72  18 3.73  22 3.74  18 3.74  20 3.76  20 3.76
  20  0.497  0.349  0.675-  61 2.07  64 2.07  57 2.07  63 2.08  62 2.08  66 2.08  18 3.21  22 3.22
                            19 3.72  19 3.72  17 3.73  21 3.74  17 3.74  19 3.76  19 3.76
  21  0.992  0.147  0.725-  66 2.05  65 2.06  67 2.06  68 2.07  64 2.09  71 2.12  19 3.22  23 3.22
                            24 3.59  22 3.69  22 3.69  20 3.74
  22  0.508  0.647  0.725-  67 2.05  68 2.06  66 2.06  65 2.07  61 2.09  70 2.12  20 3.22  24 3.22
                            23 3.59  21 3.69  21 3.69  19 3.74
  23  0.041  0.459  0.774-  72 1.98  69 2.02  68 2.03  71 2.15  70 2.16  21 3.22  24 3.50  24 3.50
                            22 3.59
  24  0.459  0.959  0.774-  69 1.98  72 2.02  65 2.03  70 2.15  71 2.16  22 3.22  23 3.50  23 3.50
                            21 3.59
  25  0.310  0.936  0.239-   4 2.12   2 2.15   1 2.16
  26  0.683  0.362  0.209-   2 1.98   1 2.02
  27  0.817  0.862  0.209-   1 1.98   2 2.02
  28  0.190  0.436  0.239-   3 2.12   1 2.15   2 2.16
  29  0.309  0.240  0.290-   3 2.05   4 2.06   6 2.08
  30  0.693  0.665  0.261-   2 2.03   3 2.06   4 2.07
  31  0.807  0.165  0.261-   1 2.03   4 2.06   3 2.07
  32  0.191  0.740  0.290-   4 2.05   3 2.06   5 2.08
  33  0.308  0.537  0.340-   8 2.07   5 2.08   6 2.08
  34  0.688  0.963  0.310-   6 2.07   5 2.07   4 2.09
  35  0.812  0.463  0.310-   5 2.07   6 2.07   3 2.09
  36  0.192  0.037  0.340-   7 2.07   6 2.08   5 2.08
  37  0.307  0.836  0.390-   7 2.07   8 2.07  10 2.07
  38  0.693  0.265  0.360-   7 2.07   6 2.07   8 2.07
  39  0.807  0.765  0.360-   8 2.07   5 2.07   7 2.07
  40  0.193  0.336  0.390-   8 2.07   7 2.07   9 2.07
  41  0.306  0.136  0.440-   9 2.07  10 2.07  12 2.07
  42  0.693  0.564  0.410-   9 2.07  10 2.07   8 2.07
  43  0.807  0.064  0.410-  10 2.07   9 2.07   7 2.07
  44  0.194  0.636  0.440-  10 2.07   9 2.07  11 2.07
  45  0.306  0.436  0.490-  11 2.07  12 2.07  14 2.07
  46  0.694  0.864  0.460-  11 2.07  12 2.07  10 2.07
  47  0.806  0.364  0.460-  12 2.07  11 2.07   9 2.07
  48  0.194  0.936  0.490-  12 2.07  11 2.07  13 2.07
  49  0.306  0.736  0.540-  13 2.07  14 2.07  16 2.07
  50  0.694  0.164  0.510-  13 2.07  14 2.07  12 2.07
  51  0.806  0.664  0.510-  14 2.07  13 2.07  11 2.07
  52  0.194  0.236  0.540-  14 2.07  13 2.07  15 2.07
  53  0.307  0.036  0.590-  15 2.07  16 2.07  18 2.07
  54  0.694  0.464  0.560-  15 2.07  16 2.07  14 2.07
  55  0.806  0.964  0.560-  16 2.07  15 2.07  13 2.07
  56  0.193  0.536  0.590-  16 2.07  15 2.07  17 2.07
  57  0.307  0.335  0.640-  17 2.07  20 2.07  18 2.07
  58  0.693  0.764  0.610-  17 2.07  18 2.07  16 2.07
  59  0.807  0.264  0.610-  18 2.07  17 2.07  15 2.07
  60  0.193  0.835  0.640-  18 2.07  19 2.07  17 2.07
  61  0.312  0.637  0.690-  20 2.07  19 2.07  22 2.09
  62  0.692  0.063  0.660-  18 2.07  19 2.08  20 2.08
  63  0.808  0.563  0.660-  17 2.07  20 2.08  19 2.08
  64  0.188  0.137  0.690-  19 2.07  20 2.07  21 2.09
  65  0.307  0.935  0.739-  24 2.03  21 2.06  22 2.07
  66  0.691  0.360  0.710-  21 2.05  22 2.06  20 2.08
  67  0.809  0.860  0.710-  22 2.05  21 2.06  19 2.08
  68  0.193  0.435  0.739-  23 2.03  22 2.06  21 2.07
  69  0.317  0.238  0.791-  24 1.98  23 2.02
  70  0.690  0.664  0.761-  22 2.12  24 2.15  23 2.16
  71  0.810  0.164  0.761-  21 2.12  23 2.15  24 2.16
  72  0.183  0.738  0.791-  23 1.98  24 2.02
 
  LATTYP: Found a simple monoclinic cell.
 ALAT       =    53.8221522822
 B/A-ratio  =     0.0886765355
 C/A-ratio  =     1.0197649476
 COS(beta)  =    -0.9945852262
  
  Lattice vectors:
  
 A1 = (   0.0000000000,  -5.7532380000, -53.5137770000)
 A2 = (  -4.7727620000,   0.0000000000,   0.0000000000)
 A3 = (   0.0000000000,  11.5064760000,  53.6662640000)


Analysis of symmetry for initial positions (statically):
=====================================================================
 Subroutine PRICEL returns:
 Original cell was already a primitive cell.
 

 Routine SETGRP: Setting up the symmetry group for a 
 simple monoclinic supercell.


 Subroutine GETGRP returns: Found  4 space group operations
 (whereof  1 operations were pure point group operations)
 out of a pool of  4 trial point group operations.


The static configuration has the point symmetry C_1 .
 The point group associated with its full space group is C_2h.


Analysis of symmetry for dynamics (positions and initial velocities):
=====================================================================
 Subroutine PRICEL returns:
 Original cell was already a primitive cell.
 

 Routine SETGRP: Setting up the symmetry group for a 
 simple monoclinic supercell.


 Subroutine GETGRP returns: Found  4 space group operations
 (whereof  1 operations were pure point group operations)
 out of a pool of  4 trial point group operations.


The dynamic configuration has the point symmetry C_1 .
 The point group associated with its full space group is C_2h.


 Subroutine INISYM returns: Found  4 space group operations
 (whereof  1 operations are pure point group operations),
 and found     1 'primitive' translations

 
 
 KPOINTS: pymatgen v2019.9.16 with grid density = 

Automatic generation of k-mesh.
Space group operators:
 irot       det(A)        alpha          n_x          n_y          n_z        tau_x        tau_y        tau_z
    1     1.000000     0.000000     1.000000     0.000000     0.000000     0.000000     0.000000     0.000000
    2    -1.000000     0.000000     1.000000     0.000000     0.000000    -0.000000     0.600000    -0.000000
    3     1.000000   180.000000     1.000000     0.000000     0.000000    -0.500000     0.100000    -0.000000
    4    -1.000000   180.000000     1.000000     0.000000     0.000000    -0.500000     0.500000     0.000000
 
 Subroutine IBZKPT returns following result:
 ===========================================
 
 Found      6 irreducible k-points:
 
 Following reciprocal coordinates:
            Coordinates               Weight
  0.000000  0.000000  0.000000      1.000000
  0.250000  0.000000  0.000000      2.000000
  0.500000  0.000000  0.000000      1.000000
  0.000000  0.333333  0.000000      2.000000
  0.250000  0.333333  0.000000      4.000000
  0.500000  0.333333  0.000000      2.000000
 
 Following cartesian coordinates:
            Coordinates               Weight
  0.000000  0.000000  0.000000      1.000000
  0.052381  0.000000  0.000000      2.000000
  0.104761  0.000000  0.000000      1.000000
  0.000000  0.057938  0.000000      2.000000
  0.052381  0.057938  0.000000      4.000000
  0.104761  0.057938  0.000000      2.000000
 


--------------------------------------------------------------------------------------------------------




 Dimension of arrays:
   k-points           NKPTS =      6   k-points in BZ     NKDIM =      6   number of bands    NBANDS=    376
   number of dos      NEDOS =    301   number of ions     NIONS =     72
   non local maximal  LDIM  =      6   non local SUM 2l+1 LMDIM =     18
   total plane-waves  NPLWV = 806400
   max r-space proj   IRMAX =   6454   max aug-charges    IRDMAX=  24774
   dimension x,y,z NGX =    40 NGY =   48 NGZ =  420
   dimension x,y,z NGXF=    80 NGYF=   96 NGZF=  840
   support grid    NGXF=    80 NGYF=   96 NGZF=  840
   ions per type =              24  48
   NGX,Y,Z   is equivalent  to a cutoff of  13.93, 13.87, 13.09 a.u.
   NGXF,Y,Z  is equivalent  to a cutoff of  27.87, 27.73, 26.17 a.u.

 SYSTEM =  unknown system                          
 POSCAR =  Sn24 O48                                

 Startparameter for this run:
   NWRITE =      2    write-flag & timer
   PREC   = accura    normal or accurate (medium, high low for compatibility)
   ISTART =      0    job   : 0-new  1-cont  2-samecut
   ICHARG =      2    charge: 1-file 2-atom 10-const
   ISPIN  =      1    spin polarized calculation?
   LNONCOLLINEAR =      F non collinear calculations
   LSORBIT =      F    spin-orbit coupling
   INIWAV =      1    electr: 0-lowe 1-rand  2-diag
   LASPH  =      T    aspherical Exc in radial PAW
   METAGGA=      F    non-selfconsistent MetaGGA calc.

 Electronic Relaxation 1
   ENCUT  =  550.0 eV  40.42 Ry    6.36 a.u.   9.13 11.01102.04*2*pi/ulx,y,z
   ENINI  =  550.0     initial cutoff
   ENAUG  =  605.4 eV  augmentation charge cutoff
   NELM   =    150;   NELMIN=  2; NELMDL=  0     # of ELM steps 
   EDIFF  = 0.1E-05   stopping-criterion for ELM
   LREAL  =      T    real-space projection
   NLSPLINE    = F    spline interpolate recip. space projectors
   LCOMPAT=      F    compatible to vasp.4.4
   GGA_COMPAT  = T    GGA compatible to vasp.4.4-vasp.4.6
   LMAXPAW     = -100 max onsite density
   LMAXMIX     =    2 max onsite mixed and CHGCAR
   VOSKOWN=      0    Vosko Wilk Nusair interpolation
   ROPT   =   -0.00025  -0.00025
 Ionic relaxation
   EDIFFG = -.1E-01   stopping-criterion for IOM
   NSW    =      0    number of steps for IOM
   NBLOCK =      1;   KBLOCK =      1    inner block; outer block 
   IBRION =     -1    ionic relax: 0-MD 1-quasi-New 2-CG
   NFREE  =      0    steps in history (QN), initial steepest desc. (CG)
   ISIF   =      2    stress and relaxation
   IWAVPR =     11    prediction:  0-non 1-charg 2-wave 3-comb
   ISYM   =      2    0-nonsym 1-usesym 2-fastsym
   LCORR  =      T    Harris-Foulkes like correction to forces

   POTIM  = 0.5000    time-step for ionic-motion
   TEIN   =    0.0    initial temperature
   TEBEG  =    0.0;   TEEND  =   0.0 temperature during run
   SMASS  =  -3.00    Nose mass-parameter (am)
   estimated Nose-frequenzy (Omega)   =  0.10E-29 period in steps =****** mass=  -0.521E-27a.u.
   SCALEE = 1.0000    scale energy and forces
   NPACO  =    256;   APACO  = 16.0  distance and # of slots for P.C.
   PSTRESS=    0.0 pullay stress

  Mass of Ions in am
   POMASS = 118.71 16.00
  Ionic Valenz
   ZVAL   =  14.00  6.00
  Atomic Wigner-Seitz radii
   RWIGS  =  -1.00 -1.00
  virtual crystal weights 
   VCA    =   1.00  1.00
   NELECT =     624.0000    total number of electrons
   NUPDOWN=      -1.0000    fix difference up-down

 DOS related values:
   EMIN   =  10.00;   EMAX   =-10.00  energy-range for DOS
   EFERMI =   0.00
   ISMEAR =     0;   SIGMA  =   0.02  broadening in eV -4-tet -1-fermi 0-gaus

 Electronic relaxation 2 (details)
   IALGO  =     38    algorithm
   LDIAG  =      T    sub-space diagonalisation (order eigenvalues)
   LSUBROT=      F    optimize rotation matrix (better conditioning)
   TURBO    =      0    0=normal 1=particle mesh
   IRESTART =      0    0=no restart 2=restart with 2 vectors
   NREBOOT  =      0    no. of reboots
   NMIN     =      0    reboot dimension
   EREF     =   0.00    reference energy to select bands
   IMIX   =      4    mixing-type and parameters
     AMIX     =   0.40;   BMIX     =  1.00
     AMIX_MAG =   1.60;   BMIX_MAG =  1.00
     AMIN     =   0.10
     WC   =   100.;   INIMIX=   1;  MIXPRE=   1;  MAXMIX= -45

 Intra band minimization:
   WEIMIN = 0.0000     energy-eigenvalue tresh-hold
   EBREAK =  0.66E-09  absolut break condition
   DEPER  =   0.30     relativ break condition  

   TIME   =   0.40     timestep for ELM

  volume/ion in A,a.u.               =      20.35       137.33
  Fermi-wavevector in a.u.,A,eV,Ry     =   1.231687  2.327550 20.640744  1.517052
  Thomas-Fermi vector in A             =   2.366486
 
 Write flags
   LWAVE        =      F    write WAVECAR
   LDOWNSAMPLE  =      F    k-point downsampling of WAVECAR
   LCHARG       =      F    write CHGCAR
   LVTOT        =      F    write LOCPOT, total local potential
   LVHAR        =      T    write LOCPOT, Hartree potential only
   LELF         =      F    write electronic localiz. function (ELF)
   LORBIT       =     11    0 simple, 1 ext, 2 COOP (PROOUT), +10 PAW based schemes


 Dipole corrections
   LMONO  =      F    monopole corrections only (constant potential shift)
   LDIPOL =      F    correct potential (dipole corrections)
   IDIPOL =      0    1-x, 2-y, 3-z, 4-all directions 
   EPSILON=  1.0000000 bulk dielectric constant

 Core level calculations are selected ICORELEVEL =  1
 Exchange correlation treatment:
   GGA     =    PS    GGA type
   LEXCH   =    14    internal setting for exchange type
   VOSKOWN=      0    Vosko Wilk Nusair interpolation
   LHFCALC =     F    Hartree Fock is set to
   LHFONE  =     F    Hartree Fock one center treatment
   AEXX    =    0.0000 exact exchange contribution

 Linear response parameters
   LEPSILON=     F    determine dielectric tensor
   LRPA    =     F    only Hartree local field effects (RPA)
   LNABLA  =     F    use nabla operator in PAW spheres
   LVEL    =     F    velocity operator in full k-point grid
   LINTERFAST=   F  fast interpolation
   KINTER  =     0    interpolate to denser k-point grid
   CSHIFT  =0.1000    complex shift for real part using Kramers Kronig
   OMEGAMAX=  -1.0    maximum frequency
   DEG_THRESHOLD= 0.2000000E-02 threshold for treating states as degnerate
   RTIME   =   -0.100 relaxation time in fs
  (WPLASMAI=    0.000 imaginary part of plasma frequency in eV, 0.658/RTIME)
   DFIELD  = 0.0000000 0.0000000 0.0000000 field for delta impulse in time
 
 Orbital magnetization related:
   ORBITALMAG=     F  switch on orbital magnetization
   LCHIMAG   =     F  perturbation theory with respect to B field
   DQ        =  0.001000  dq finite difference perturbation B field
   LLRAUG    =     F  two centre corrections for induced B field


 ----------------------------------------------------------------------------- 
|                                                                             |
|           W    W    AA    RRRRR   N    N  II  N    N   GGGG   !!!           |
|           W    W   A  A   R    R  NN   N  II  NN   N  G    G  !!!           |
|           W    W  A    A  R    R  N N  N  II  N N  N  G       !!!           |
|           W WW W  AAAAAA  RRRRR   N  N N  II  N  N N  G  GGG   !            |
|           WW  WW  A    A  R   R   N   NN  II  N   NN  G    G                |
|           W    W  A    A  R    R  N    N  II  N    N   GGGG   !!!           |
|                                                                             |
|      One of the lattice vectors is very long (>50 A), but AMIN is rather    |
|      large. This can spoil convergence since charge sloshing might occur    |
|      along the long lattice vector. If problems with convergence are        |
|      observed, try to decrease AMIN to a smaller values (e.g. 0.01).        |
|      Note: this warning only applies if the selfconsistency cycle is used.  |
|                                                                             |
 ----------------------------------------------------------------------------- 



--------------------------------------------------------------------------------------------------------


 Static calculation
 charge density and potential will be updated during run
 non-spin polarized calculation
 Variant of blocked Davidson
 Davidson routine will perform the subspace rotation
 perform sub-space diagonalisation
    after iterative eigenvector-optimisation
 modified Broyden-mixing scheme, WC =      100.0
 initial mixing is a Kerker type mixing with AMIX =  0.4000 and BMIX =      1.0000
 Hartree-type preconditioning will be used
 using additional bands           64
 real space projection scheme for non local part
 use partial core corrections
 calculate Harris-corrections to forces 
   (improved forces if not selfconsistent)
 use gradient corrections 
 use of overlap-Matrix (Vanderbilt PP)
 Gauss-broadening in eV      SIGMA  =   0.02


--------------------------------------------------------------------------------------------------------


  energy-cutoff  :      550.00
  volume of cell :     1465.24
      direct lattice vectors                 reciprocal lattice vectors
     4.772762000  0.000000000  0.000000000     0.209522285  0.000000000  0.000000000
     0.000000000  5.753238000  0.152487000     0.000000000  0.173815163  0.000000000
     0.000000000  0.000000000 53.361290000     0.000000000 -0.000496700  0.018740177

  length of vectors
     4.772762000  5.755258445 53.361290000     0.209522285  0.173815163  0.018746758


 
 k-points in units of 2pi/SCALE and weight: pymatgen v2019.9.16 with grid density = 
   0.00000000  0.00000000  0.00000000       0.083
   0.05238057  0.00000000  0.00000000       0.167
   0.10476114  0.00000000  0.00000000       0.083
   0.00000000  0.05793839  0.00000000       0.167
   0.05238057  0.05793839  0.00000000       0.333
   0.10476114  0.05793839  0.00000000       0.167
 
 k-points in reciprocal lattice and weights: pymatgen v2019.9.16 with grid density = 
   0.00000000  0.00000000  0.00000000       0.083
   0.25000000  0.00000000  0.00000000       0.167
   0.50000000  0.00000000  0.00000000       0.083
   0.00000000  0.33333333  0.00000000       0.167
   0.25000000  0.33333333  0.00000000       0.333
   0.50000000  0.33333333  0.00000000       0.167
 
 position of ions in fractional coordinates (direct lattice) 
   0.95914131  0.14124420  0.22564190
   0.54085869  0.64124420  0.22564190
   0.00845327  0.45344516  0.27474773
   0.49154673  0.95344516  0.27474773
   0.99703958  0.75058737  0.32503212
   0.50296042  0.25058737  0.32503212
   0.00061598  0.05068720  0.37498368
   0.49938402  0.55068720  0.37498368
   0.99977560  0.35018056  0.42500586
   0.50022440  0.85018056  0.42500586
   0.00005550  0.65005246  0.47500231
   0.49994450  0.15005246  0.47500231
   0.99994450  0.94994754  0.52499769
   0.50005550  0.44994754  0.52499769
   0.00022440  0.24981944  0.57499414
   0.49977560  0.74981944  0.57499414
   0.99938402  0.54931280  0.62501632
   0.50061598  0.04931280  0.62501632
   0.00296042  0.84941263  0.67496788
   0.49703958  0.34941263  0.67496788
   0.99154673  0.14655484  0.72525227
   0.50845327  0.64655484  0.72525227
   0.04085869  0.45875580  0.77435810
   0.45914131  0.95875580  0.77435810
   0.31022903  0.93569910  0.23863653
   0.68302684  0.36159367  0.20885416
   0.81697316  0.86159367  0.20885416
   0.18977097  0.43569910  0.23863653
   0.30882819  0.24028778  0.29016425
   0.69290675  0.66475562  0.26105585
   0.80709325  0.16475562  0.26105585
   0.19117181  0.74028778  0.29016425
   0.30806284  0.53739186  0.34014025
   0.68814719  0.96263804  0.30969596
   0.81185281  0.46263804  0.30969596
   0.19193716  0.03739186  0.34014025
   0.30661174  0.83642763  0.39029710
   0.69317713  0.26458830  0.35980444
   0.80682287  0.76458830  0.35980444
   0.19338826  0.33642763  0.39029710
   0.30644122  0.13587282  0.44030167
   0.69323436  0.56437672  0.40969787
   0.80676564  0.06437672  0.40969787
   0.19355878  0.63587282  0.44030167
   0.30630263  0.43566610  0.49031008
   0.69363983  0.86438879  0.45970444
   0.80636017  0.36438879  0.45970444
   0.19369737  0.93566610  0.49031008
   0.30636017  0.73561121  0.54029556
   0.69369737  0.16433390  0.50968992
   0.80630263  0.66433390  0.50968992
   0.19363983  0.23561121  0.54029556
   0.30676564  0.03562328  0.59030213
   0.69355878  0.46412718  0.55969833
   0.80644122  0.96412718  0.55969833
   0.19323436  0.53562328  0.59030213
   0.30682287  0.33541170  0.64019556
   0.69338826  0.76357237  0.60970290
   0.80661174  0.26357237  0.60970290
   0.19317713  0.83541170  0.64019556
   0.31185281  0.63736196  0.69030404
   0.69193716  0.06260814  0.65985975
   0.80806284  0.56260814  0.65985975
   0.18814719  0.13736196  0.69030404
   0.30709325  0.93524438  0.73894415
   0.69117181  0.35971222  0.70983575
   0.80882819  0.85971222  0.70983575
   0.19290675  0.43524438  0.73894415
   0.31697316  0.23840633  0.79114584
   0.68977097  0.66430090  0.76136347
   0.81022903  0.16430090  0.76136347
   0.18302684  0.73840633  0.79114584
 
 position of ions in cartesian coordinates  (Angst):
   4.57775321  0.81261150 12.06208075
   2.58138979  3.68923050 12.13832425
   0.04034546  2.60877791 14.73003778
   2.34603554  5.48539691 14.80628128
   4.75863260  4.31830780 17.45858780
   2.40051040  1.44168880 17.38234430
   0.00293993  0.29161555 20.01734183
   2.38344107  3.16823455 20.09358533
   4.77169098  2.01467209 22.73225903
   2.38745202  4.89129109 22.80850253
   0.00026491  3.73990651 25.44586059
   2.38611609  0.86328751 25.36961709
   4.77249709  5.46527429 28.15940861
   2.38664591  2.58865529 28.08316511
   0.00107102  1.43727071 30.72052317
   2.38530998  4.31388971 30.79676667
   4.76982207  3.16032725 33.43544037
   2.38932093  0.28370825 33.35919687
   0.01412940  4.88687300 36.14668140
   2.37225160  2.01025400 36.07043790
   4.73241654  0.84316489 38.72274442
   2.42672646  3.71978389 38.79898792
   0.19500879  2.63933130 41.39070145
   2.19137221  5.51595030 41.46694495
   1.48064931  5.38329961 12.87663501
   3.25992455  2.08033444 11.19986580
   3.89921845  4.95695344 11.27610930
   0.90573169  2.50668061 12.80039151
   1.47396344  1.38243281 15.52017937
   3.30707902  3.82449727 14.03164342
   3.85206398  0.94787827 13.95539992
   0.91241756  4.25905181 15.59642287
   1.47031060  3.09174325 18.23226758
   3.28436276  5.53828577 16.67256594
   3.87478024  2.66166677 16.59632244
   0.91607040  0.21512425 18.15602408
   1.46338485  4.81216723 20.95430104
   3.30836946  1.52223948 19.23997556
   3.85077354  4.39885848 19.31621906
   0.92299615  1.93554823 20.87805754
   1.46257101  0.78170865 23.51578406
   3.30864263  3.24699360 21.94806678
   3.85050037  0.37037460 21.87182328
   0.92380999  3.65832765 23.59202756
   1.46190957  2.50649078 26.23001154
   3.31057785  4.97303443 24.66222985
   3.84856515  2.09641543 24.58598635
   0.92447143  5.38310978 26.30625504
   1.46218415  4.23214637 28.94303935
   3.31085243  0.94545202 27.22277066
   3.84829057  3.82207102 27.29901416
   0.92419685  1.35552737 28.86679585
   1.46411937  0.20494920 31.50471542
   3.31019099  2.67023415 29.93699814
   3.84895201  5.54685315 30.01324164
   0.92226163  3.08156820 31.58095892
   1.46439254  1.92970332 34.21280664
   3.30937715  4.39301357 32.65096816
   3.84976585  1.51639457 32.57472466
   0.92198846  4.80632232 34.28905014
   1.48839924  3.66689503 36.93270326
   3.30245140  0.36019955 35.22051462
   3.85669160  3.23681855 35.29675812
   0.89798176  0.79027603 36.85645976
   1.46568298  5.38068353 39.57362578
   3.29879856  2.06950999 37.93260283
   3.86034444  4.94612899 38.00884633
   0.92069802  2.50406453 39.49738228
   1.51283745  1.37160836 42.25291640
   3.29211269  3.82188119 40.72863419
   3.86703031  0.94526219 40.65239069
   0.87354355  4.24822736 42.32915990
 


--------------------------------------------------------------------------------------------------------


 k-point  1 :   0.0000 0.0000 0.0000  plane waves:   42827
 k-point  2 :   0.2500 0.0000 0.0000  plane waves:   42778
 k-point  3 :   0.5000 0.0000 0.0000  plane waves:   42850
 k-point  4 :   0.0000 0.3333 0.0000  plane waves:   42889
 k-point  5 :   0.2500 0.3333 0.0000  plane waves:   42966
 k-point  6 :   0.5000 0.3333 0.0000  plane waves:   43006

 maximum and minimum number of plane-waves per node :      4341     4226

 maximum number of plane-waves:     43006
 maximum index in each direction: 
   IXMAX=    9   IYMAX=   11   IZMAX=  102
   IXMIN=   -9   IYMIN=  -11   IZMIN= -102


 real space projection operators:
  total allocation   :      31950.44 KBytes
  max/ min on nodes  :       3349.50       3093.83


 parallel 3D FFT for wavefunctions:
    minimum data exchange during FFTs selected (reduces bandwidth)
 parallel 3D FFT for charge:
    minimum data exchange during FFTs selected (reduces bandwidth)


 total amount of memory used by VASP MPI-rank0   101714. kBytes
=======================================================================

   base      :      30000. kBytes
   nonlr-proj:      11807. kBytes
   fftplans  :       7799. kBytes
   grid      :      12279. kBytes
   one-center:        124. kBytes
   wavefun   :      39705. kBytes
 
     INWAV:  cpu time    0.0000: real time    0.0000
 Broyden mixing: mesh for mixing (old mesh)
   NGX = 19   NGY = 23   NGZ =205
  (NGX  = 80   NGY  = 96   NGZ  =840)
  gives a total of  89585 points

 initial charge density was supplied:
 charge density of overlapping atoms calculated
 number of electron     624.0000000 magnetization 
 keeping initial charge density in first step


--------------------------------------------------------------------------------------------------------


 Maximum index for non-local projection operator          618
 Maximum index for augmentation-charges          985 (set IRDMAX)


--------------------------------------------------------------------------------------------------------


 First call to EWALD:  gamma=   0.156
 Maximum number of real-space cells 6x 5x 1
 Maximum number of reciprocal cells 1x 2x11

    FEWALD:  cpu time    0.0035: real time    0.0035


--------------------------------------- Iteration      1(   1)  ---------------------------------------


    POTLOK:  cpu time    0.1001: real time    0.1510
    SETDIJ:  cpu time    0.0764: real time    0.0766
     EDDAV:  cpu time    7.8720: real time    7.9015
       DOS:  cpu time    0.0008: real time    0.0008
    --------------------------------------------
      LOOP:  cpu time    8.0493: real time    8.1299

 eigenvalue-minimisations  :  4576
 total energy-change (2. order) : 0.1278928E+05  (-0.2595992E+05)
 number of electron     624.0000000 magnetization 
 augmentation part      624.0000000 magnetization 

 Free energy of the ion-electron system (eV)
  ---------------------------------------------------
  alpha Z        PSCENC =      1290.98181623
  Ewald energy   TEWEN  =    866688.72639165
  -Hartree energ DENC   =   -928808.77557220
  -exchange      EXHF   =         0.00000000
  -V(xc)+E(xc)   XCENC  =      2753.30542233
  PAW double counting   =     54256.47513254   -55224.08484040
  entropy T*S    EENTRO =        -0.00000848
  eigenvalues    EBANDS =      5737.71363091
  atomic energy  EATOM  =     66094.93779060
  Solvation  Ediel_sol  =         0.00000000
  ---------------------------------------------------
  free energy    TOTEN  =     12789.27976319 eV

  energy without entropy =    12789.27977167  energy(sigma->0) =    12789.27976743


--------------------------------------------------------------------------------------------------------




--------------------------------------- Iteration      1(   2)  ---------------------------------------


     EDDAV:  cpu time    8.0680: real time    8.0931
       DOS:  cpu time    0.0008: real time    0.0008
    --------------------------------------------
      LOOP:  cpu time    8.0688: real time    8.0938

 eigenvalue-minimisations  :  4984
 total energy-change (2. order) :-0.1038374E+05  (-0.1002265E+05)
 number of electron     624.0000000 magnetization 
 augmentation part      624.0000000 magnetization 

 Free energy of the ion-electron system (eV)
  ---------------------------------------------------
  alpha Z        PSCENC =      1290.98181623
  Ewald energy   TEWEN  =    866688.72639165
  -Hartree energ DENC   =   -928808.77557220
  -exchange      EXHF   =         0.00000000
  -V(xc)+E(xc)   XCENC  =      2753.30542233
  PAW double counting   =     54256.47513254   -55224.08484040
  entropy T*S    EENTRO =        -0.00188063
  eigenvalues    EBANDS =     -4646.02785786
  atomic energy  EATOM  =     66094.93779060
  Solvation  Ediel_sol  =         0.00000000
  ---------------------------------------------------
  free energy    TOTEN  =      2405.53640227 eV

  energy without entropy =     2405.53828290  energy(sigma->0) =     2405.53734259


--------------------------------------------------------------------------------------------------------




--------------------------------------- Iteration      1(   3)  ---------------------------------------


     EDDAV:  cpu time    8.1636: real time    8.1887
       DOS:  cpu time    0.0004: real time    0.0004
    --------------------------------------------
      LOOP:  cpu time    8.1641: real time    8.1891

 eigenvalue-minimisations  :  4920
 total energy-change (2. order) :-0.2624497E+04  (-0.2520485E+04)
 number of electron     624.0000000 magnetization 
 augmentation part      624.0000000 magnetization 

 Free energy of the ion-electron system (eV)
  ---------------------------------------------------
  alpha Z        PSCENC =      1290.98181623
  Ewald energy   TEWEN  =    866688.72639165
  -Hartree energ DENC   =   -928808.77557220
  -exchange      EXHF   =         0.00000000
  -V(xc)+E(xc)   XCENC  =      2753.30542233
  PAW double counting   =     54256.47513254   -55224.08484040
  entropy T*S    EENTRO =        -0.00000000
  eigenvalues    EBANDS =     -7270.52700623
  atomic energy  EATOM  =     66094.93779060
  Solvation  Ediel_sol  =         0.00000000
  ---------------------------------------------------
  free energy    TOTEN  =      -218.96086547 eV

  energy without entropy =     -218.96086547  energy(sigma->0) =     -218.96086547


--------------------------------------------------------------------------------------------------------




--------------------------------------- Iteration      1(   4)  ---------------------------------------


     EDDAV:  cpu time    8.4843: real time    8.5099
       DOS:  cpu time    0.0005: real time    0.0005
    --------------------------------------------
      LOOP:  cpu time    8.4847: real time    8.5104

 eigenvalue-minimisations  :  5328
 total energy-change (2. order) :-0.3051088E+03  (-0.2990447E+03)
 number of electron     624.0000000 magnetization 
 augmentation part      624.0000000 magnetization 

 Free energy of the ion-electron system (eV)
  ---------------------------------------------------
  alpha Z        PSCENC =      1290.98181623
  Ewald energy   TEWEN  =    866688.72639165
  -Hartree energ DENC   =   -928808.77557220
  -exchange      EXHF   =         0.00000000
  -V(xc)+E(xc)   XCENC  =      2753.30542233
  PAW double counting   =     54256.47513254   -55224.08484040
  entropy T*S    EENTRO =        -0.00000000
  eigenvalues    EBANDS =     -7575.63584349
  atomic energy  EATOM  =     66094.93779060
  Solvation  Ediel_sol  =         0.00000000
  ---------------------------------------------------
  free energy    TOTEN  =      -524.06970273 eV

  energy without entropy =     -524.06970273  energy(sigma->0) =     -524.06970273


--------------------------------------------------------------------------------------------------------




--------------------------------------- Iteration      1(   5)  ---------------------------------------


     EDDAV:  cpu time    8.6587: real time    8.6892
       DOS:  cpu time    0.0005: real time    0.0005
    CHARGE:  cpu time    0.4415: real time    0.4426
    MIXING:  cpu time    0.0045: real time    0.0045
    --------------------------------------------
      LOOP:  cpu time    9.1052: real time    9.1369

 eigenvalue-minimisations  :  5152
 total energy-change (2. order) :-0.1351172E+02  (-0.1335707E+02)
 number of electron     624.0000075 magnetization 
 augmentation part      221.5125234 magnetization 

 Broyden mixing:
  rms(total) = 0.50340E+01    rms(broyden)= 0.50333E+01
  rms(prec ) = 0.50955E+01
  weight for this iteration     100.00

 Free energy of the ion-electron system (eV)
  ---------------------------------------------------
  alpha Z        PSCENC =      1290.98181623
  Ewald energy   TEWEN  =    866688.72639165
  -Hartree energ DENC   =   -928808.77557220
  -exchange      EXHF   =         0.00000000
  -V(xc)+E(xc)   XCENC  =      2753.30542233
  PAW double counting   =     54256.47513254   -55224.08484040
  entropy T*S    EENTRO =        -0.00000000
  eigenvalues    EBANDS =     -7589.14756056
  atomic energy  EATOM  =     66094.93779060
  Solvation  Ediel_sol  =         0.00000000
  ---------------------------------------------------
  free energy    TOTEN  =      -537.58141980 eV

  energy without entropy =     -537.58141980  energy(sigma->0) =     -537.58141980


--------------------------------------------------------------------------------------------------------




--------------------------------------- Iteration      1(   6)  ---------------------------------------


    POTLOK:  cpu time    0.0984: real time    0.1024
    SETDIJ:  cpu time    0.1169: real time    0.1172
     EDDAV:  cpu time   10.6422: real time   10.6768
       DOS:  cpu time    0.0006: real time    0.0006
    CHARGE:  cpu time    0.4402: real time    0.4413
    MIXING:  cpu time    0.0045: real time    0.0045
    --------------------------------------------
      LOOP:  cpu time   11.3027: real time   11.3426

 eigenvalue-minimisations  :  6928
 total energy-change (2. order) : 0.6748131E+02  (-0.2337934E+02)
 number of electron     624.0000078 magnetization 
 augmentation part      213.0254119 magnetization 

 Broyden mixing:
  rms(total) = 0.19150E+01    rms(broyden)= 0.19141E+01
  rms(prec ) = 0.19199E+01
  weight for this iteration     100.00

 eigenvalues of (default mixing * dielectric matrix)
  average eigenvalue GAMMA=   0.9679
  0.9679

 Free energy of the ion-electron system (eV)
  ---------------------------------------------------
  alpha Z        PSCENC =      1290.98181623
  Ewald energy   TEWEN  =    866688.72639165
  -Hartree energ DENC   =   -929291.23466911
  -exchange      EXHF   =         0.00000000
  -V(xc)+E(xc)   XCENC  =      2796.90421864
  PAW double counting   =     63118.20017949   -64027.93206180
  entropy T*S    EENTRO =        -0.00000000
  eigenvalues    EBANDS =     -7140.68377814
  atomic energy  EATOM  =     66094.93779060
  Solvation  Ediel_sol  =         0.00000000
  ---------------------------------------------------
  free energy    TOTEN  =      -470.10011244 eV

  energy without entropy =     -470.10011244  energy(sigma->0) =     -470.10011244


--------------------------------------------------------------------------------------------------------




--------------------------------------- Iteration      1(   7)  ---------------------------------------


    POTLOK:  cpu time    0.0968: real time    0.1022
    SETDIJ:  cpu time    0.1175: real time    0.1178
     EDDAV:  cpu time    8.0991: real time    8.1214
       DOS:  cpu time    0.0006: real time    0.0006
    CHARGE:  cpu time    0.4303: real time    0.4313
    MIXING:  cpu time    0.0044: real time    0.0044
    --------------------------------------------
      LOOP:  cpu time    8.7488: real time    8.7778

 eigenvalue-minimisations  :  4992
 total energy-change (2. order) :-0.1225796E+01  (-0.2936550E+01)
 number of electron     624.0000077 magnetization 
 augmentation part      212.8213128 magnetization 

 Broyden mixing:
  rms(total) = 0.11712E+01    rms(broyden)= 0.11712E+01
  rms(prec ) = 0.11755E+01
  weight for this iteration     100.00

 eigenvalues of (default mixing * dielectric matrix)
  average eigenvalue GAMMA=   1.5195
  1.1398  1.8992

 Free energy of the ion-electron system (eV)
  ---------------------------------------------------
  alpha Z        PSCENC =      1290.98181623
  Ewald energy   TEWEN  =    866688.72639165
  -Hartree energ DENC   =   -929327.72504818
  -exchange      EXHF   =         0.00000000
  -V(xc)+E(xc)   XCENC  =      2796.50106110
  PAW double counting   =     69669.76602003   -70593.29051173
  entropy T*S    EENTRO =        -0.00000000
  eigenvalues    EBANDS =     -7091.22342861
  atomic energy  EATOM  =     66094.93779060
  Solvation  Ediel_sol  =         0.00000000
  ---------------------------------------------------
  free energy    TOTEN  =      -471.32590891 eV

  energy without entropy =     -471.32590891  energy(sigma->0) =     -471.32590891


--------------------------------------------------------------------------------------------------------




--------------------------------------- Iteration      1(   8)  ---------------------------------------


    POTLOK:  cpu time    0.0963: real time    0.1017
    SETDIJ:  cpu time    0.1171: real time    0.1174
     EDDAV:  cpu time    9.4289: real time    9.4532
       DOS:  cpu time    0.0005: real time    0.0005
    CHARGE:  cpu time    0.4410: real time    0.4421
    MIXING:  cpu time    0.0046: real time    0.0046
    --------------------------------------------
      LOOP:  cpu time   10.0885: real time   10.1195

 eigenvalue-minimisations  :  6152
 total energy-change (2. order) : 0.4841998E+00  (-0.4833255E+00)
 number of electron     624.0000076 magnetization 
 augmentation part      213.4183416 magnetization 

 Broyden mixing:
  rms(total) = 0.31548E+00    rms(broyden)= 0.31538E+00
  rms(prec ) = 0.32014E+00
  weight for this iteration     100.00

 eigenvalues of (default mixing * dielectric matrix)
  average eigenvalue GAMMA=   1.4742
  2.3486  1.0370  1.0370

 Free energy of the ion-electron system (eV)
  ---------------------------------------------------
  alpha Z        PSCENC =      1290.98181623
  Ewald energy   TEWEN  =    866688.72639165
  -Hartree energ DENC   =   -929296.64628775
  -exchange      EXHF   =         0.00000000
  -V(xc)+E(xc)   XCENC  =      2792.46759445
  PAW double counting   =     76746.90341124   -77698.64842413
  entropy T*S    EENTRO =        -0.00000000
  eigenvalues    EBANDS =     -7089.56400143
  atomic energy  EATOM  =     66094.93779060
  Solvation  Ediel_sol  =         0.00000000
  ---------------------------------------------------
  free energy    TOTEN  =      -470.84170913 eV

  energy without entropy =     -470.84170913  energy(sigma->0) =     -470.84170913


--------------------------------------------------------------------------------------------------------




--------------------------------------- Iteration      1(   9)  ---------------------------------------


    POTLOK:  cpu time    0.0981: real time    0.1032
    SETDIJ:  cpu time    0.1154: real time    0.1157
     EDDAV:  cpu time   10.4042: real time   10.4303
       DOS:  cpu time    0.0005: real time    0.0005
    CHARGE:  cpu time    0.4302: real time    0.4312
    MIXING:  cpu time    0.0046: real time    0.0046
    --------------------------------------------
      LOOP:  cpu time   11.0530: real time   11.0855

 eigenvalue-minimisations  :  6424
 total energy-change (2. order) : 0.2494571E+00  (-0.1426224E+00)
 number of electron     624.0000077 magnetization 
 augmentation part      212.8116533 magnetization 

 Broyden mixing:
  rms(total) = 0.74260E-01    rms(broyden)= 0.74156E-01
  rms(prec ) = 0.75122E-01
  weight for this iteration     100.00

 eigenvalues of (default mixing * dielectric matrix)
  average eigenvalue GAMMA=   1.3627
  2.3779  0.9783  0.9783  1.1163

 Free energy of the ion-electron system (eV)
  ---------------------------------------------------
  alpha Z        PSCENC =      1290.98181623
  Ewald energy   TEWEN  =    866688.72639165
  -Hartree energ DENC   =   -929341.50966034
  -exchange      EXHF   =         0.00000000
  -V(xc)+E(xc)   XCENC  =      2795.64304434
  PAW double counting   =     78099.24208325   -79050.79344767
  entropy T*S    EENTRO =        -0.00000000
  eigenvalues    EBANDS =     -7047.82027014
  atomic energy  EATOM  =     66094.93779060
  Solvation  Ediel_sol  =         0.00000000
  ---------------------------------------------------
  free energy    TOTEN  =      -470.59225207 eV

  energy without entropy =     -470.59225207  energy(sigma->0) =     -470.59225207


--------------------------------------------------------------------------------------------------------




--------------------------------------- Iteration      1(  10)  ---------------------------------------


    POTLOK:  cpu time    0.0976: real time    0.1015
    SETDIJ:  cpu time    0.1173: real time    0.1176
     EDDAV:  cpu time    8.9444: real time    8.9760
       DOS:  cpu time    0.0006: real time    0.0006
    CHARGE:  cpu time    0.4317: real time    0.4327
    MIXING:  cpu time    0.0046: real time    0.0046
    --------------------------------------------
      LOOP:  cpu time    9.5961: real time    9.6330

 eigenvalue-minimisations  :  5424
 total energy-change (2. order) :-0.8270787E-02  (-0.1245435E-01)
 number of electron     624.0000077 magnetization 
 augmentation part      212.8563269 magnetization 

 Broyden mixing:
  rms(total) = 0.34700E-01    rms(broyden)= 0.34698E-01
  rms(prec ) = 0.35138E-01
  weight for this iteration     100.00

 eigenvalues of (default mixing * dielectric matrix)
  average eigenvalue GAMMA=   1.4139
  2.4517  1.7845  0.9340  0.9340  0.9653

 Free energy of the ion-electron system (eV)
  ---------------------------------------------------
  alpha Z        PSCENC =      1290.98181623
  Ewald energy   TEWEN  =    866688.72639165
  -Hartree energ DENC   =   -929354.17301064
  -exchange      EXHF   =         0.00000000
  -V(xc)+E(xc)   XCENC  =      2795.26034563
  PAW double counting   =     78163.82912596   -79117.75158024
  entropy T*S    EENTRO =        -0.00000000
  eigenvalues    EBANDS =     -7032.41140206
  atomic energy  EATOM  =     66094.93779060
  Solvation  Ediel_sol  =         0.00000000
  ---------------------------------------------------
  free energy    TOTEN  =      -470.60052285 eV

  energy without entropy =     -470.60052285  energy(sigma->0) =     -470.60052285


--------------------------------------------------------------------------------------------------------




--------------------------------------- Iteration      1(  11)  ---------------------------------------


    POTLOK:  cpu time    0.0957: real time    0.1021
    SETDIJ:  cpu time    0.1227: real time    0.1230
     EDDAV:  cpu time    9.3351: real time    9.3579
       DOS:  cpu time    0.0006: real time    0.0006
    CHARGE:  cpu time    0.4393: real time    0.4403
    MIXING:  cpu time    0.0047: real time    0.0047
    --------------------------------------------
      LOOP:  cpu time    9.9979: real time   10.0284

 eigenvalue-minimisations  :  5984
 total energy-change (2. order) :-0.5373721E-02  (-0.1523631E-02)
 number of electron     624.0000077 magnetization 
 augmentation part      212.8836119 magnetization 

 Broyden mixing:
  rms(total) = 0.14140E-01    rms(broyden)= 0.14137E-01
  rms(prec ) = 0.14519E-01
  weight for this iteration     100.00

 eigenvalues of (default mixing * dielectric matrix)
  average eigenvalue GAMMA=   1.4342
  2.5604  2.2723  0.9220  0.9220  0.9643  0.9643

 Free energy of the ion-electron system (eV)
  ---------------------------------------------------
  alpha Z        PSCENC =      1290.98181623
  Ewald energy   TEWEN  =    866688.72639165
  -Hartree energ DENC   =   -929366.61763046
  -exchange      EXHF   =         0.00000000
  -V(xc)+E(xc)   XCENC  =      2795.18350966
  PAW double counting   =     78159.92297206   -79115.29083112
  entropy T*S    EENTRO =        -0.00000000
  eigenvalues    EBANDS =     -7018.44991521
  atomic energy  EATOM  =     66094.93779060
  Solvation  Ediel_sol  =         0.00000000
  ---------------------------------------------------
  free energy    TOTEN  =      -470.60589657 eV

  energy without entropy =     -470.60589657  energy(sigma->0) =     -470.60589657


--------------------------------------------------------------------------------------------------------




--------------------------------------- Iteration      1(  12)  ---------------------------------------


    POTLOK:  cpu time    0.1064: real time    0.1123
    SETDIJ:  cpu time    0.1066: real time    0.1069
     EDDAV:  cpu time    9.4297: real time    9.4543
       DOS:  cpu time    0.0006: real time    0.0006
    CHARGE:  cpu time    0.4431: real time    0.4441
    MIXING:  cpu time    0.0047: real time    0.0047
    --------------------------------------------
      LOOP:  cpu time   10.0911: real time   10.1229

 eigenvalue-minimisations  :  5992
 total energy-change (2. order) :-0.1047852E-02  (-0.1307289E-03)
 number of electron     624.0000077 magnetization 
 augmentation part      212.8847487 magnetization 

 Broyden mixing:
  rms(total) = 0.46740E-02    rms(broyden)= 0.46729E-02
  rms(prec ) = 0.52002E-02
  weight for this iteration     100.00

 eigenvalues of (default mixing * dielectric matrix)
  average eigenvalue GAMMA=   1.4154
  2.6989  2.2955  1.1954  0.9885  0.9885  0.8704  0.8704

 Free energy of the ion-electron system (eV)
  ---------------------------------------------------
  alpha Z        PSCENC =      1290.98181623
  Ewald energy   TEWEN  =    866688.72639165
  -Hartree energ DENC   =   -929376.63545513
  -exchange      EXHF   =         0.00000000
  -V(xc)+E(xc)   XCENC  =      2795.20012236
  PAW double counting   =     78118.73006647   -79074.71834290
  entropy T*S    EENTRO =        -0.00000000
  eigenvalues    EBANDS =     -7007.82933372
  atomic energy  EATOM  =     66094.93779060
  Solvation  Ediel_sol  =         0.00000000
  ---------------------------------------------------
  free energy    TOTEN  =      -470.60694443 eV

  energy without entropy =     -470.60694443  energy(sigma->0) =     -470.60694443


--------------------------------------------------------------------------------------------------------




--------------------------------------- Iteration      1(  13)  ---------------------------------------


    POTLOK:  cpu time    0.0966: real time    0.1021
    SETDIJ:  cpu time    0.1182: real time    0.1185
     EDDAV:  cpu time    8.9121: real time    8.9348
       DOS:  cpu time    0.0006: real time    0.0006
    CHARGE:  cpu time    0.4457: real time    0.4467
    MIXING:  cpu time    0.0049: real time    0.0049
    --------------------------------------------
      LOOP:  cpu time    9.5780: real time    9.6076

 eigenvalue-minimisations  :  5376
 total energy-change (2. order) :-0.2627116E-03  (-0.2865852E-04)
 number of electron     624.0000077 magnetization 
 augmentation part      212.8843868 magnetization 

 Broyden mixing:
  rms(total) = 0.33394E-02    rms(broyden)= 0.33392E-02
  rms(prec ) = 0.37771E-02
  weight for this iteration     100.00

 eigenvalues of (default mixing * dielectric matrix)
  average eigenvalue GAMMA=   1.4226
  2.7036  2.3370  1.6930  0.9021  0.9917  0.9917  0.8808  0.8808

 Free energy of the ion-electron system (eV)
  ---------------------------------------------------
  alpha Z        PSCENC =      1290.98181623
  Ewald energy   TEWEN  =    866688.72639165
  -Hartree energ DENC   =   -929383.40660594
  -exchange      EXHF   =         0.00000000
  -V(xc)+E(xc)   XCENC  =      2795.21976245
  PAW double counting   =     78111.49582334   -79067.56342220
  entropy T*S    EENTRO =        -0.00000000
  eigenvalues    EBANDS =     -7000.99876328
  atomic energy  EATOM  =     66094.93779060
  Solvation  Ediel_sol  =         0.00000000
  ---------------------------------------------------
  free energy    TOTEN  =      -470.60720714 eV

  energy without entropy =     -470.60720714  energy(sigma->0) =     -470.60720714


--------------------------------------------------------------------------------------------------------




--------------------------------------- Iteration      1(  14)  ---------------------------------------


    POTLOK:  cpu time    0.0973: real time    0.1029
    SETDIJ:  cpu time    0.1150: real time    0.1153
     EDDAV:  cpu time    9.7648: real time    9.7889
       DOS:  cpu time    0.0005: real time    0.0005
    CHARGE:  cpu time    0.4497: real time    0.4508
    MIXING:  cpu time    0.0053: real time    0.0053
    --------------------------------------------
      LOOP:  cpu time   10.4326: real time   10.4637

 eigenvalue-minimisations  :  6104
 total energy-change (2. order) :-0.1595765E-03  (-0.8637734E-05)
 number of electron     624.0000077 magnetization 
 augmentation part      212.8862204 magnetization 

 Broyden mixing:
  rms(total) = 0.17897E-02    rms(broyden)= 0.17894E-02
  rms(prec ) = 0.22112E-02
  weight for this iteration     100.00

 eigenvalues of (default mixing * dielectric matrix)
  average eigenvalue GAMMA=   1.4803
  2.9698  2.3954  2.3954  0.9143  0.9143  0.9582  0.9582  0.9085  0.9085

 Free energy of the ion-electron system (eV)
  ---------------------------------------------------
  alpha Z        PSCENC =      1290.98181623
  Ewald energy   TEWEN  =    866688.72639165
  -Hartree energ DENC   =   -929389.84589574
  -exchange      EXHF   =         0.00000000
  -V(xc)+E(xc)   XCENC  =      2795.22896908
  PAW double counting   =     78105.53853133   -79061.56964499
  entropy T*S    EENTRO =        -0.00000000
  eigenvalues    EBANDS =     -6994.60532488
  atomic energy  EATOM  =     66094.93779060
  Solvation  Ediel_sol  =         0.00000000
  ---------------------------------------------------
  free energy    TOTEN  =      -470.60736672 eV

  energy without entropy =     -470.60736672  energy(sigma->0) =     -470.60736672


--------------------------------------------------------------------------------------------------------




--------------------------------------- Iteration      1(  15)  ---------------------------------------


    POTLOK:  cpu time    0.0982: real time    0.1035
    SETDIJ:  cpu time    0.1192: real time    0.1195
     EDDAV:  cpu time    9.6064: real time    9.6305
       DOS:  cpu time    0.0005: real time    0.0005
    CHARGE:  cpu time    0.4340: real time    0.4350
    MIXING:  cpu time    0.0050: real time    0.0050
    --------------------------------------------
      LOOP:  cpu time   10.2633: real time   10.2941

 eigenvalue-minimisations  :  6136
 total energy-change (2. order) :-0.1347893E-03  (-0.6154782E-05)
 number of electron     624.0000077 magnetization 
 augmentation part      212.8862692 magnetization 

 Broyden mixing:
  rms(total) = 0.11357E-02    rms(broyden)= 0.11356E-02
  rms(prec ) = 0.14383E-02
  weight for this iteration     100.00

 eigenvalues of (default mixing * dielectric matrix)
  average eigenvalue GAMMA=   1.5439
  3.4942  2.6355  2.2871  1.3116  1.0490  1.0490  0.9183  0.9183  0.8881  0.8881

 Free energy of the ion-electron system (eV)
  ---------------------------------------------------
  alpha Z        PSCENC =      1290.98181623
  Ewald energy   TEWEN  =    866688.72639165
  -Hartree energ DENC   =   -929396.43636793
  -exchange      EXHF   =         0.00000000
  -V(xc)+E(xc)   XCENC  =      2795.24158913
  PAW double counting   =     78105.91632238   -79061.90807411
  entropy T*S    EENTRO =        -0.00000000
  eigenvalues    EBANDS =     -6988.06696946
  atomic energy  EATOM  =     66094.93779060
  Solvation  Ediel_sol  =         0.00000000
  ---------------------------------------------------
  free energy    TOTEN  =      -470.60750150 eV

  energy without entropy =     -470.60750150  energy(sigma->0) =     -470.60750150


--------------------------------------------------------------------------------------------------------




--------------------------------------- Iteration      1(  16)  ---------------------------------------


    POTLOK:  cpu time    0.1092: real time    0.1123
    SETDIJ:  cpu time    0.1092: real time    0.1094
     EDDAV:  cpu time    8.7424: real time    8.7646
       DOS:  cpu time    0.0005: real time    0.0005
    CHARGE:  cpu time    0.4415: real time    0.4426
    MIXING:  cpu time    0.0052: real time    0.0052
    --------------------------------------------
      LOOP:  cpu time    9.4080: real time    9.4346

 eigenvalue-minimisations  :  5496
 total energy-change (2. order) :-0.9564011E-04  (-0.3651926E-05)
 number of electron     624.0000077 magnetization 
 augmentation part      212.8870744 magnetization 

 Broyden mixing:
  rms(total) = 0.92202E-03    rms(broyden)= 0.92193E-03
  rms(prec ) = 0.10806E-02
  weight for this iteration     100.00

 eigenvalues of (default mixing * dielectric matrix)
  average eigenvalue GAMMA=   1.6299
  4.1262  2.6776  2.2439  2.2439  1.0067  0.9707  0.9707  0.9204  0.9204  0.9241
  0.9241

 Free energy of the ion-electron system (eV)
  ---------------------------------------------------
  alpha Z        PSCENC =      1290.98181623
  Ewald energy   TEWEN  =    866688.72639165
  -Hartree energ DENC   =   -929401.88502421
  -exchange      EXHF   =         0.00000000
  -V(xc)+E(xc)   XCENC  =      2795.24234911
  PAW double counting   =     78107.46466860   -79063.43228877
  entropy T*S    EENTRO =        -0.00000000
  eigenvalues    EBANDS =     -6982.64330036
  atomic energy  EATOM  =     66094.93779060
  Solvation  Ediel_sol  =         0.00000000
  ---------------------------------------------------
  free energy    TOTEN  =      -470.60759714 eV

  energy without entropy =     -470.60759714  energy(sigma->0) =     -470.60759714


--------------------------------------------------------------------------------------------------------




--------------------------------------- Iteration      1(  17)  ---------------------------------------


    POTLOK:  cpu time    0.0972: real time    0.1029
    SETDIJ:  cpu time    0.1266: real time    0.1269
     EDDAV:  cpu time    8.9758: real time    9.0079
       DOS:  cpu time    0.0005: real time    0.0005
    CHARGE:  cpu time    0.4352: real time    0.4363
    MIXING:  cpu time    0.0052: real time    0.0053
    --------------------------------------------
      LOOP:  cpu time    9.6407: real time    9.6799

 eigenvalue-minimisations  :  5328
 total energy-change (2. order) :-0.1344589E-03  (-0.2112883E-05)
 number of electron     624.0000077 magnetization 
 augmentation part      212.8863843 magnetization 

 Broyden mixing:
  rms(total) = 0.45510E-03    rms(broyden)= 0.45495E-03
  rms(prec ) = 0.57060E-03
  weight for this iteration     100.00

 eigenvalues of (default mixing * dielectric matrix)
  average eigenvalue GAMMA=   1.6888
  4.7928  2.9217  2.2765  2.2765  1.2537  1.0454  1.0454  0.9469  0.9432  0.9432
  0.9104  0.9104

 Free energy of the ion-electron system (eV)
  ---------------------------------------------------
  alpha Z        PSCENC =      1290.98181623
  Ewald energy   TEWEN  =    866688.72639165
  -Hartree energ DENC   =   -929405.64534743
  -exchange      EXHF   =         0.00000000
  -V(xc)+E(xc)   XCENC  =      2795.24865305
  PAW double counting   =     78109.83797551   -79065.79241788
  entropy T*S    EENTRO =        -0.00000000
  eigenvalues    EBANDS =     -6978.90259334
  atomic energy  EATOM  =     66094.93779060
  Solvation  Ediel_sol  =         0.00000000
  ---------------------------------------------------
  free energy    TOTEN  =      -470.60773160 eV

  energy without entropy =     -470.60773160  energy(sigma->0) =     -470.60773160


--------------------------------------------------------------------------------------------------------




--------------------------------------- Iteration      1(  18)  ---------------------------------------


    POTLOK:  cpu time    0.0980: real time    0.1037
    SETDIJ:  cpu time    0.1167: real time    0.1170
     EDDAV:  cpu time    7.1105: real time    7.1364
       DOS:  cpu time    0.0006: real time    0.0006
    CHARGE:  cpu time    0.4440: real time    0.4450
    MIXING:  cpu time    0.0053: real time    0.0053
    --------------------------------------------
      LOOP:  cpu time    7.7749: real time    7.8079

 eigenvalue-minimisations  :  3912
 total energy-change (2. order) :-0.1445964E-03  (-0.5925274E-06)
 number of electron     624.0000077 magnetization 
 augmentation part      212.8862690 magnetization 

 Broyden mixing:
  rms(total) = 0.33027E-03    rms(broyden)= 0.33024E-03
  rms(prec ) = 0.39150E-03
  weight for this iteration     100.00

 eigenvalues of (default mixing * dielectric matrix)
  average eigenvalue GAMMA=   1.7584
  5.5935  3.0682  2.5274  2.2894  1.7869  0.9467  0.9467  0.9017  0.9017  1.0147
  1.0147  0.9337  0.9337

 Free energy of the ion-electron system (eV)
  ---------------------------------------------------
  alpha Z        PSCENC =      1290.98181623
  Ewald energy   TEWEN  =    866688.72639165
  -Hartree energ DENC   =   -929408.01393796
  -exchange      EXHF   =         0.00000000
  -V(xc)+E(xc)   XCENC  =      2795.25087540
  PAW double counting   =     78109.91004834   -79065.86553113
  entropy T*S    EENTRO =        -0.00000000
  eigenvalues    EBANDS =     -6976.53532934
  atomic energy  EATOM  =     66094.93779060
  Solvation  Ediel_sol  =         0.00000000
  ---------------------------------------------------
  free energy    TOTEN  =      -470.60787620 eV

  energy without entropy =     -470.60787620  energy(sigma->0) =     -470.60787620


--------------------------------------------------------------------------------------------------------




--------------------------------------- Iteration      1(  19)  ---------------------------------------


    POTLOK:  cpu time    0.0980: real time    0.1042
    SETDIJ:  cpu time    0.1167: real time    0.1170
     EDDAV:  cpu time    6.8860: real time    6.9089
       DOS:  cpu time    0.0005: real time    0.0005
    CHARGE:  cpu time    0.4397: real time    0.4408
    MIXING:  cpu time    0.0055: real time    0.0055
    --------------------------------------------
      LOOP:  cpu time    7.5465: real time    7.5768

 eigenvalue-minimisations  :  3944
 total energy-change (2. order) :-0.1079415E-03  (-0.4158910E-06)
 number of electron     624.0000077 magnetization 
 augmentation part      212.8861425 magnetization 

 Broyden mixing:
  rms(total) = 0.22959E-03    rms(broyden)= 0.22958E-03
  rms(prec ) = 0.26226E-03
  weight for this iteration     100.00

 eigenvalues of (default mixing * dielectric matrix)
  average eigenvalue GAMMA=   1.7812
  6.2005  3.3845  2.6507  2.3274  1.6464  1.1076  1.1076  0.9257  0.9257  0.9769
  0.9769  0.9331  0.9331  0.8400

 Free energy of the ion-electron system (eV)
  ---------------------------------------------------
  alpha Z        PSCENC =      1290.98181623
  Ewald energy   TEWEN  =    866688.72639165
  -Hartree energ DENC   =   -929409.41986769
  -exchange      EXHF   =         0.00000000
  -V(xc)+E(xc)   XCENC  =      2795.25121251
  PAW double counting   =     78109.41060053   -79065.37559644
  entropy T*S    EENTRO =        -0.00000000
  eigenvalues    EBANDS =     -6975.12033154
  atomic energy  EATOM  =     66094.93779060
  Solvation  Ediel_sol  =         0.00000000
  ---------------------------------------------------
  free energy    TOTEN  =      -470.60798414 eV

  energy without entropy =     -470.60798414  energy(sigma->0) =     -470.60798414


--------------------------------------------------------------------------------------------------------




--------------------------------------- Iteration      1(  20)  ---------------------------------------


    POTLOK:  cpu time    0.0981: real time    0.1042
    SETDIJ:  cpu time    0.1168: real time    0.1170
     EDDAV:  cpu time    6.0720: real time    6.0930
       DOS:  cpu time    0.0005: real time    0.0005
    CHARGE:  cpu time    0.4328: real time    0.4338
    MIXING:  cpu time    0.0056: real time    0.0056
    --------------------------------------------
      LOOP:  cpu time    6.7258: real time    6.7542

 eigenvalue-minimisations  :  3288
 total energy-change (2. order) :-0.5807600E-04  (-0.1618694E-06)
 number of electron     624.0000077 magnetization 
 augmentation part      212.8863331 magnetization 

 Broyden mixing:
  rms(total) = 0.15926E-03    rms(broyden)= 0.15925E-03
  rms(prec ) = 0.17937E-03
  weight for this iteration     100.00

 eigenvalues of (default mixing * dielectric matrix)
  average eigenvalue GAMMA=   1.8177
  6.7572  3.6717  2.6518  2.2088  2.1116  1.2009  1.2009  0.9436  0.9436  0.9958
  0.9958  0.8934  0.8934  0.8988  0.8988

 Free energy of the ion-electron system (eV)
  ---------------------------------------------------
  alpha Z        PSCENC =      1290.98181623
  Ewald energy   TEWEN  =    866688.72639165
  -Hartree energ DENC   =   -929410.07975129
  -exchange      EXHF   =         0.00000000
  -V(xc)+E(xc)   XCENC  =      2795.24998184
  PAW double counting   =     78109.12704394   -79065.09315149
  entropy T*S    EENTRO =        -0.00000000
  eigenvalues    EBANDS =     -6974.45816370
  atomic energy  EATOM  =     66094.93779060
  Solvation  Ediel_sol  =         0.00000000
  ---------------------------------------------------
  free energy    TOTEN  =      -470.60804222 eV

  energy without entropy =     -470.60804222  energy(sigma->0) =     -470.60804222


--------------------------------------------------------------------------------------------------------




--------------------------------------- Iteration      1(  21)  ---------------------------------------


    POTLOK:  cpu time    0.0981: real time    0.1039
    SETDIJ:  cpu time    0.1163: real time    0.1166
     EDDAV:  cpu time    5.8588: real time    5.8871
       DOS:  cpu time    0.0006: real time    0.0006
    CHARGE:  cpu time    0.4465: real time    0.4475
    MIXING:  cpu time    0.0057: real time    0.0057
    --------------------------------------------
      LOOP:  cpu time    6.5260: real time    6.5614

 eigenvalue-minimisations  :  3192
 total energy-change (2. order) :-0.4093758E-04  (-0.6852689E-07)
 number of electron     624.0000077 magnetization 
 augmentation part      212.8864248 magnetization 

 Broyden mixing:
  rms(total) = 0.95145E-04    rms(broyden)= 0.95133E-04
  rms(prec ) = 0.10863E-03
  weight for this iteration     100.00

 eigenvalues of (default mixing * dielectric matrix)
  average eigenvalue GAMMA=   1.8519
  7.4825  3.8726  2.6998  2.3672  2.3672  1.1535  1.1535  1.1122  1.0316  1.0316
  0.9366  0.9366  0.9120  0.9120  0.8996  0.7622

 Free energy of the ion-electron system (eV)
  ---------------------------------------------------
  alpha Z        PSCENC =      1290.98181623
  Ewald energy   TEWEN  =    866688.72639165
  -Hartree energ DENC   =   -929410.48570353
  -exchange      EXHF   =         0.00000000
  -V(xc)+E(xc)   XCENC  =      2795.24974795
  PAW double counting   =     78108.89927035   -79064.86379606
  entropy T*S    EENTRO =        -0.00000000
  eigenvalues    EBANDS =     -6974.05360035
  atomic energy  EATOM  =     66094.93779060
  Solvation  Ediel_sol  =         0.00000000
  ---------------------------------------------------
  free energy    TOTEN  =      -470.60808316 eV

  energy without entropy =     -470.60808316  energy(sigma->0) =     -470.60808316


--------------------------------------------------------------------------------------------------------




--------------------------------------- Iteration      1(  22)  ---------------------------------------


    POTLOK:  cpu time    0.0983: real time    0.1037
    SETDIJ:  cpu time    0.1171: real time    0.1173
     EDDAV:  cpu time    5.8335: real time    5.8602
       DOS:  cpu time    0.0006: real time    0.0006
    CHARGE:  cpu time    0.4697: real time    0.4708
    MIXING:  cpu time    0.0065: real time    0.0065
    --------------------------------------------
      LOOP:  cpu time    6.5256: real time    6.5592

 eigenvalue-minimisations  :  3152
 total energy-change (2. order) :-0.2266446E-04  (-0.4133131E-07)
 number of electron     624.0000077 magnetization 
 augmentation part      212.8864724 magnetization 

 Broyden mixing:
  rms(total) = 0.79934E-04    rms(broyden)= 0.79927E-04
  rms(prec ) = 0.87467E-04
  weight for this iteration     100.00

 eigenvalues of (default mixing * dielectric matrix)
  average eigenvalue GAMMA=   1.9036
  7.9044  4.2537  2.7598  2.3895  2.3895  1.9094  1.2148  1.2148  0.9456  0.9456
[...]
   -.147E+00 -.763E+02 0.288E+04   0.110E+00 0.763E+02 -.288E+04   0.376E-01 0.928E-02 -.197E-01   -.156E-05 -.306E-06 -.355E-04
   0.147E+00 -.763E+02 0.288E+04   -.110E+00 0.763E+02 -.288E+04   -.376E-01 0.928E-02 -.197E-01   0.156E-05 -.306E-06 -.355E-04
   -.160E+00 -.254E+02 0.959E+03   0.160E+00 0.254E+02 -.959E+03   -.899E-03 -.194E-03 0.358E-03   0.369E-07 -.569E-06 -.182E-04
   0.160E+00 -.254E+02 0.959E+03   -.160E+00 0.254E+02 -.959E+03   0.899E-03 -.194E-03 0.358E-03   -.369E-07 -.569E-06 -.182E-04
   0.160E+00 0.254E+02 -.959E+03   -.160E+00 -.254E+02 0.959E+03   0.899E-03 0.194E-03 -.358E-03   -.369E-07 0.573E-06 0.181E-04
   -.160E+00 0.254E+02 -.959E+03   0.160E+00 -.254E+02 0.959E+03   -.899E-03 0.194E-03 -.358E-03   0.369E-07 0.573E-06 0.181E-04
   0.147E+00 0.763E+02 -.288E+04   -.110E+00 -.763E+02 0.288E+04   -.376E-01 -.928E-02 0.197E-01   0.156E-05 0.309E-06 0.354E-04
   -.147E+00 0.763E+02 -.288E+04   0.110E+00 -.763E+02 0.288E+04   0.376E-01 -.928E-02 0.197E-01   -.156E-05 0.309E-06 0.354E-04
   0.229E+01 0.127E+03 -.480E+04   -.228E+01 -.127E+03 0.480E+04   -.268E-02 0.550E-02 0.189E-01   0.135E-05 0.172E-06 -.128E-04
   -.229E+01 0.127E+03 -.480E+04   0.228E+01 -.127E+03 0.480E+04   0.268E-02 0.550E-02 0.189E-01   -.135E-05 0.172E-06 -.128E-04
   0.115E+01 0.179E+03 -.671E+04   -.683E+00 -.179E+03 0.671E+04   -.471E+00 -.143E+00 0.235E+00   -.982E-05 -.736E-06 -.856E-04
   -.115E+01 0.179E+03 -.671E+04   0.683E+00 -.179E+03 0.671E+04   0.471E+00 -.143E+00 0.235E+00   0.982E-05 -.736E-06 -.856E-04
   0.299E+02 0.231E+03 -.866E+04   -.298E+02 -.231E+03 0.866E+04   -.104E+00 0.190E-01 0.925E+00   -.140E-04 -.164E-06 0.605E-06
   -.299E+02 0.231E+03 -.866E+04   0.298E+02 -.231E+03 0.866E+04   0.104E+00 0.190E-01 0.925E+00   0.140E-04 -.164E-06 0.605E-06
   0.139E+03 0.255E+03 -.105E+05   -.132E+03 -.253E+03 0.105E+05   -.717E+01 -.154E+01 0.425E+00   -.177E-04 -.989E-05 0.107E-03
   -.139E+03 0.255E+03 -.105E+05   0.132E+03 -.253E+03 0.105E+05   0.717E+01 -.154E+01 0.425E+00   0.177E-04 -.989E-05 0.107E-03
   0.468E+02 -.146E+03 0.434E+04   -.484E+02 0.148E+03 -.435E+04   0.160E+01 -.203E+01 0.424E+01   0.362E-05 0.144E-06 -.198E-04
   0.580E+02 -.848E+02 0.472E+04   -.648E+02 0.773E+02 -.474E+04   0.684E+01 0.756E+01 0.215E+02   0.774E-05 0.451E-05 -.576E-04
   -.580E+02 -.848E+02 0.472E+04   0.648E+02 0.773E+02 -.474E+04   -.684E+01 0.756E+01 0.215E+02   -.774E-05 0.451E-05 -.576E-04
   -.468E+02 -.146E+03 0.434E+04   0.484E+02 0.148E+03 -.435E+04   -.160E+01 -.203E+01 0.424E+01   -.362E-05 0.144E-06 -.198E-04
   0.314E+02 -.124E+03 0.346E+04   -.328E+02 0.126E+03 -.346E+04   0.140E+01 -.209E+01 -.798E-01   0.135E-05 0.217E-06 0.219E-04
   -.191E+02 -.767E+02 0.389E+04   0.201E+02 0.748E+02 -.388E+04   -.104E+01 0.188E+01 -.431E+01   -.233E-05 -.175E-05 -.804E-05
   0.191E+02 -.767E+02 0.389E+04   -.201E+02 0.748E+02 -.388E+04   0.104E+01 0.188E+01 -.431E+01   0.233E-05 -.175E-05 -.804E-05
   -.314E+02 -.124E+03 0.346E+04   0.328E+02 0.126E+03 -.346E+04   -.140E+01 -.209E+01 -.798E-01   -.135E-05 0.217E-06 0.219E-04
   0.349E+02 -.102E+03 0.265E+04   -.371E+02 0.104E+03 -.265E+04   0.220E+01 -.220E+01 0.156E+01   -.329E-05 -.122E-05 0.176E-04
   -.327E+02 -.471E+02 0.311E+04   0.344E+02 0.444E+02 -.311E+04   -.168E+01 0.274E+01 -.287E+00   0.201E-05 -.137E-05 0.343E-04
   0.327E+02 -.471E+02 0.311E+04   -.344E+02 0.444E+02 -.311E+04   0.168E+01 0.274E+01 -.287E+00   -.201E-05 -.137E-05 0.343E-04
   -.349E+02 -.102E+03 0.265E+04   0.371E+02 0.104E+03 -.265E+04   -.220E+01 -.220E+01 0.156E+01   0.329E-05 -.122E-05 0.176E-04
   0.354E+02 -.785E+02 0.182E+04   -.376E+02 0.804E+02 -.182E+04   0.220E+01 -.195E+01 0.112E+01   0.991E-06 0.100E-05 0.947E-06
   -.343E+02 -.304E+02 0.228E+04   0.364E+02 0.284E+02 -.228E+04   -.216E+01 0.200E+01 -.150E+01   -.118E-05 -.242E-05 0.918E-05
   0.343E+02 -.304E+02 0.228E+04   -.364E+02 0.284E+02 -.228E+04   0.216E+01 0.200E+01 -.150E+01   0.118E-05 -.242E-05 0.918E-05
   -.354E+02 -.785E+02 0.182E+04   0.376E+02 0.804E+02 -.182E+04   -.220E+01 -.195E+01 0.112E+01   -.991E-06 0.100E-05 0.947E-06
   0.357E+02 -.564E+02 0.100E+04   -.380E+02 0.584E+02 -.100E+04   0.226E+01 -.194E+01 0.124E+01   -.104E-05 0.263E-06 -.167E-04
   -.355E+02 -.857E+01 0.147E+04   0.377E+02 0.656E+01 -.146E+04   -.222E+01 0.200E+01 -.116E+01   0.169E-05 0.943E-06 -.622E-05
   0.355E+02 -.857E+01 0.147E+04   -.377E+02 0.656E+01 -.146E+04   0.222E+01 0.200E+01 -.116E+01   -.169E-05 0.943E-06 -.622E-05
   -.357E+02 -.564E+02 0.100E+04   0.380E+02 0.584E+02 -.100E+04   -.226E+01 -.194E+01 0.124E+01   0.104E-05 0.263E-06 -.167E-04
   0.357E+02 -.345E+02 0.179E+03   -.380E+02 0.364E+02 -.180E+03   0.226E+01 -.192E+01 0.121E+01   -.162E-06 0.410E-06 -.318E-05
   -.356E+02 0.128E+02 0.643E+03   0.379E+02 -.147E+02 -.642E+03   -.225E+01 0.193E+01 -.124E+01   -.124E-05 0.320E-06 -.145E-04
   0.356E+02 0.128E+02 0.643E+03   -.379E+02 -.147E+02 -.642E+03   0.225E+01 0.193E+01 -.124E+01   0.124E-05 0.320E-06 -.145E-04
   -.357E+02 -.345E+02 0.179E+03   0.380E+02 0.364E+02 -.180E+03   -.226E+01 -.192E+01 0.121E+01   0.162E-06 0.410E-06 -.318E-05
   0.356E+02 -.128E+02 -.643E+03   -.379E+02 0.147E+02 0.642E+03   0.225E+01 -.193E+01 0.124E+01   0.124E-05 -.318E-06 0.144E-04
   -.357E+02 0.345E+02 -.179E+03   0.380E+02 -.364E+02 0.180E+03   -.226E+01 0.192E+01 -.121E+01   0.162E-06 -.408E-06 0.311E-05
   0.357E+02 0.345E+02 -.179E+03   -.380E+02 -.364E+02 0.180E+03   0.226E+01 0.192E+01 -.121E+01   -.162E-06 -.408E-06 0.311E-05
   -.356E+02 -.128E+02 -.643E+03   0.379E+02 0.147E+02 0.642E+03   -.225E+01 -.193E+01 0.124E+01   -.124E-05 -.318E-06 0.144E-04
   0.355E+02 0.857E+01 -.147E+04   -.377E+02 -.656E+01 0.146E+04   0.222E+01 -.200E+01 0.116E+01   -.169E-05 -.941E-06 0.618E-05
   -.357E+02 0.564E+02 -.100E+04   0.380E+02 -.584E+02 0.100E+04   -.226E+01 0.194E+01 -.124E+01   0.104E-05 -.261E-06 0.167E-04
   0.357E+02 0.564E+02 -.100E+04   -.380E+02 -.584E+02 0.100E+04   0.226E+01 0.194E+01 -.124E+01   -.104E-05 -.261E-06 0.167E-04
   -.355E+02 0.857E+01 -.147E+04   0.377E+02 -.656E+01 0.146E+04   -.222E+01 -.200E+01 0.116E+01   0.169E-05 -.941E-06 0.618E-05
   0.343E+02 0.304E+02 -.228E+04   -.364E+02 -.284E+02 0.228E+04   0.216E+01 -.200E+01 0.150E+01   0.118E-05 0.242E-05 -.922E-05
   -.354E+02 0.785E+02 -.182E+04   0.376E+02 -.804E+02 0.182E+04   -.220E+01 0.195E+01 -.112E+01   -.991E-06 -.100E-05 -.987E-06
   0.354E+02 0.785E+02 -.182E+04   -.376E+02 -.804E+02 0.182E+04   0.220E+01 0.195E+01 -.112E+01   0.991E-06 -.100E-05 -.987E-06
   -.343E+02 0.304E+02 -.228E+04   0.364E+02 -.284E+02 0.228E+04   -.216E+01 -.200E+01 0.150E+01   -.118E-05 0.242E-05 -.922E-05
   0.327E+02 0.471E+02 -.311E+04   -.344E+02 -.444E+02 0.311E+04   0.168E+01 -.274E+01 0.287E+00   -.201E-05 0.137E-05 -.343E-04
   -.349E+02 0.102E+03 -.265E+04   0.371E+02 -.104E+03 0.265E+04   -.220E+01 0.220E+01 -.156E+01   0.329E-05 0.123E-05 -.176E-04
   0.349E+02 0.102E+03 -.265E+04   -.371E+02 -.104E+03 0.265E+04   0.220E+01 0.220E+01 -.156E+01   -.329E-05 0.123E-05 -.176E-04
   -.327E+02 0.471E+02 -.311E+04   0.344E+02 -.444E+02 0.311E+04   -.168E+01 -.274E+01 0.287E+00   0.201E-05 0.137E-05 -.343E-04
   0.191E+02 0.767E+02 -.389E+04   -.201E+02 -.748E+02 0.388E+04   0.104E+01 -.188E+01 0.431E+01   0.233E-05 0.175E-05 0.801E-05
   -.314E+02 0.124E+03 -.346E+04   0.328E+02 -.126E+03 0.346E+04   -.140E+01 0.209E+01 0.798E-01   -.135E-05 -.215E-06 -.219E-04
   0.314E+02 0.124E+03 -.346E+04   -.328E+02 -.126E+03 0.346E+04   0.140E+01 0.209E+01 0.798E-01   0.135E-05 -.215E-06 -.219E-04
   -.191E+02 0.767E+02 -.389E+04   0.201E+02 -.748E+02 0.388E+04   -.104E+01 -.188E+01 0.431E+01   -.233E-05 0.175E-05 0.801E-05
   -.580E+02 0.848E+02 -.472E+04   0.648E+02 -.773E+02 0.474E+04   -.684E+01 -.756E+01 -.215E+02   -.774E-05 -.451E-05 0.577E-04
   -.468E+02 0.146E+03 -.434E+04   0.484E+02 -.148E+03 0.435E+04   -.160E+01 0.203E+01 -.424E+01   -.362E-05 -.144E-06 0.198E-04
   0.468E+02 0.146E+03 -.434E+04   -.484E+02 -.148E+03 0.435E+04   0.160E+01 0.203E+01 -.424E+01   0.362E-05 -.144E-06 0.198E-04
   0.580E+02 0.848E+02 -.472E+04   -.648E+02 -.773E+02 0.474E+04   0.684E+01 -.756E+01 -.215E+02   0.774E-05 -.451E-05 0.577E-04
 -----------------------------------------------------------------------------------------------
   -.217E-08 -.229E-03 0.126E-02   -.128E-12 -.313E-12 0.127E-10   0.000E+00 0.266E-14 0.711E-14   -.168E-11 0.528E-07 -.199E-05
 
 
 POSITION                                       TOTAL-FORCE (eV/Angst)
 -----------------------------------------------------------------------------------
      4.57775      0.81261     12.06208         0.000600     -0.002987      0.002475
      2.58139      3.68923     12.13832        -0.000600     -0.002987      0.002475
      0.04035      2.60878     14.73004         0.000244     -0.000669      0.001835
      2.34604      5.48540     14.80628        -0.000244     -0.000669      0.001835
      4.75863      4.31831     17.45859         0.000361      0.000326     -0.000722
      2.40051      1.44169     17.38234        -0.000361      0.000326     -0.000722
      0.00294      0.29162     20.01734        -0.000568      0.001505      0.000145
      2.38344      3.16823     20.09359         0.000568      0.001505      0.000145
      4.77169      2.01467     22.73226         0.000501      0.001285      0.003003
      2.38745      4.89129     22.80850        -0.000501      0.001285      0.003003
      0.00026      3.73991     25.44586        -0.000370     -0.000231     -0.001574
      2.38612      0.86329     25.36962         0.000370     -0.000231     -0.001574
      4.77250      5.46527     28.15941         0.000370      0.000231      0.001574
      2.38665      2.58866     28.08317        -0.000370      0.000231      0.001574
      0.00107      1.43727     30.72052        -0.000501     -0.001285     -0.003003
      2.38531      4.31389     30.79677         0.000501     -0.001285     -0.003003
      4.76982      3.16033     33.43544         0.000568     -0.001505     -0.000145
      2.38932      0.28371     33.35920        -0.000568     -0.001505     -0.000145
      0.01413      4.88687     36.14668        -0.000361     -0.000326      0.000722
      2.37225      2.01025     36.07044         0.000361     -0.000326      0.000722
      4.73242      0.84316     38.72274        -0.000244      0.000669     -0.001835
      2.42673      3.71978     38.79899         0.000244      0.000669     -0.001835
      0.19501      2.63933     41.39070        -0.000600      0.002987     -0.002475
      2.19137      5.51595     41.46694         0.000600      0.002987     -0.002475
      1.48065      5.38330     12.87664         0.002554     -0.000663     -0.004261
      3.25992      2.08033     11.19987        -0.002143     -0.006837     -0.000318
      3.89922      4.95695     11.27611         0.002143     -0.006837     -0.000318
      0.90573      2.50668     12.80039        -0.002554     -0.000663     -0.004261
      1.47396      1.38243     15.52018         0.002537      0.001738     -0.004864
      3.30708      3.82450     14.03164        -0.004466     -0.004952     -0.001337
      3.85206      0.94788     13.95540         0.004466     -0.004952     -0.001337
      0.91242      4.25905     15.59642        -0.002537      0.001738     -0.004864
      1.47031      3.09174     18.23227         0.001501      0.004580     -0.004159
      3.28436      5.53829     16.67257        -0.004032     -0.000846     -0.001283
      3.87478      2.66167     16.59632         0.004032     -0.000846     -0.001283
      0.91607      0.21512     18.15602        -0.001501      0.004580     -0.004159
      1.46338      4.81217     20.95430         0.000294      0.003126     -0.004285
      3.30837      1.52224     19.23998        -0.002280      0.000346     -0.001383
      3.85077      4.39886     19.31622         0.002280      0.000346     -0.001383
      0.92300      1.93555     20.87806        -0.000294      0.003126     -0.004285
      1.46257      0.78171     23.51578         0.000622      0.001660     -0.002760
      3.30864      3.24699     21.94807        -0.001623      0.000432     -0.002737
      3.85050      0.37037     21.87182         0.001623      0.000432     -0.002737
      0.92381      3.65833     23.59203        -0.000622      0.001660     -0.002760
      1.46191      2.50649     26.23001         0.000026      0.000834     -0.000171
      3.31058      4.97303     24.66223        -0.001009      0.000426     -0.001884
      3.84857      2.09642     24.58599         0.001009      0.000426     -0.001884
      0.92447      5.38311     26.30626        -0.000026      0.000834     -0.000171
      1.46218      4.23215     28.94304         0.001009     -0.000426      0.001884
      3.31085      0.94545     27.22277        -0.000026     -0.000834      0.000171
      3.84829      3.82207     27.29901         0.000026     -0.000834      0.000171
      0.92420      1.35553     28.86680        -0.001009     -0.000426      0.001884
      1.46412      0.20495     31.50472         0.001623     -0.000432      0.002737
      3.31019      2.67023     29.93700        -0.000622     -0.001660      0.002760
      3.84895      5.54685     30.01324         0.000622     -0.001660      0.002760
      0.92226      3.08157     31.58096        -0.001623     -0.000432      0.002737
      1.46439      1.92970     34.21281         0.002280     -0.000346      0.001383
      3.30938      4.39301     32.65097        -0.000294     -0.003126      0.004285
      3.84977      1.51639     32.57472         0.000294     -0.003126      0.004285
      0.92199      4.80632     34.28905        -0.002280     -0.000346      0.001383
      1.48840      3.66690     36.93270         0.004032      0.000846      0.001283
      3.30245      0.36020     35.22051        -0.001501     -0.004580      0.004159
      3.85669      3.23682     35.29676         0.001501     -0.004580      0.004159
      0.89798      0.79028     36.85646        -0.004032      0.000846      0.001283
      1.46568      5.38068     39.57363         0.004466      0.004952      0.001337
      3.29880      2.06951     37.93260        -0.002537     -0.001738      0.004864
      3.86034      4.94613     38.00885         0.002537     -0.001738      0.004864
      0.92070      2.50406     39.49738        -0.004466      0.004952      0.001337
      1.51284      1.37161     42.25292         0.002143      0.006837      0.000318
      3.29211      3.82188     40.72863        -0.002554      0.000663      0.004261
      3.86703      0.94526     40.65239         0.002554      0.000663      0.004261
      0.87354      4.24823     42.32916        -0.002143      0.006837      0.000318
 -----------------------------------------------------------------------------------
    total drift:                               -0.000000     -0.000229      0.001259


--------------------------------------------------------------------------------------------------------



  FREE ENERGIE OF THE ION-ELECTRON SYSTEM (eV)
  ---------------------------------------------------
  free  energy   TOTEN  =      -470.60814607 eV

  energy  without entropy=     -470.60814607  energy(sigma->0) =     -470.60814607
 


--------------------------------------------------------------------------------------------------------


    POTLOK:  cpu time    0.2202: real time    0.2207


--------------------------------------------------------------------------------------------------------


     LOOP+:  cpu time  238.2153: real time  239.1474
    4ORBIT:  cpu time    0.0000: real time    0.0000
 


 total charge     
 
# of ion       s       p       d       tot
------------------------------------------
    1        0.940   1.039  10.286  12.265
    2        0.942   1.039  10.286  12.267
    3        0.886   1.078  10.364  12.327
    4        0.888   1.079  10.362  12.329
    5        0.882   1.076  10.363  12.321
    6        0.885   1.077  10.362  12.324
    7        0.883   1.081  10.366  12.330
    8        0.885   1.082  10.365  12.332
    9        0.882   1.080  10.366  12.329
   10        0.885   1.081  10.365  12.331
   11        0.882   1.081  10.366  12.329
   12        0.885   1.082  10.365  12.332
   13        0.882   1.081  10.366  12.329
   14        0.885   1.082  10.365  12.332
   15        0.882   1.080  10.366  12.329
   16        0.885   1.081  10.365  12.331
   17        0.883   1.081  10.366  12.330
   18        0.885   1.082  10.365  12.332
   19        0.882   1.076  10.363  12.321
   20        0.885   1.077  10.362  12.324
   21        0.886   1.078  10.364  12.327
   22        0.888   1.079  10.362  12.329
   23        0.940   1.039  10.286  12.265
   24        0.942   1.039  10.286  12.267
   25        1.559   3.408   0.000   4.967
   26        1.567   3.385   0.000   4.952
   27        1.567   3.390   0.000   4.957
   28        1.559   3.409   0.000   4.967
   29        1.554   3.487   0.000   5.041
   30        1.556   3.493   0.000   5.049
   31        1.556   3.491   0.000   5.047
   32        1.554   3.486   0.000   5.041
   33        1.554   3.477   0.000   5.030
   34        1.553   3.480   0.000   5.033
   35        1.553   3.479   0.000   5.032
   36        1.554   3.476   0.000   5.030
   37        1.554   3.481   0.000   5.035
   38        1.554   3.482   0.000   5.036
   39        1.554   3.481   0.000   5.035
   40        1.554   3.480   0.000   5.034
   41        1.554   3.481   0.000   5.034
   42        1.554   3.481   0.000   5.034
   43        1.554   3.480   0.000   5.034
   44        1.554   3.480   0.000   5.033
   45        1.554   3.481   0.000   5.035
   46        1.554   3.481   0.000   5.035
   47        1.554   3.480   0.000   5.034
   48        1.554   3.480   0.000   5.034
   49        1.554   3.481   0.000   5.035
   50        1.554   3.481   0.000   5.035
   51        1.554   3.480   0.000   5.034
   52        1.554   3.480   0.000   5.034
   53        1.554   3.481   0.000   5.034
   54        1.554   3.481   0.000   5.034
   55        1.554   3.480   0.000   5.033
   56        1.554   3.480   0.000   5.034
   57        1.554   3.482   0.000   5.036
   58        1.554   3.481   0.000   5.035
   59        1.554   3.480   0.000   5.034
   60        1.554   3.481   0.000   5.035
   61        1.553   3.480   0.000   5.033
   62        1.554   3.477   0.000   5.030
   63        1.554   3.476   0.000   5.030
   64        1.553   3.479   0.000   5.032
   65        1.556   3.493   0.000   5.049
   66        1.554   3.487   0.000   5.041
   67        1.554   3.486   0.000   5.041
   68        1.556   3.491   0.000   5.047
   69        1.567   3.385   0.000   4.952
   70        1.559   3.408   0.000   4.967
   71        1.559   3.409   0.000   4.967
   72        1.567   3.390   0.000   4.957
--------------------------------------------------
tot         96.115 192.204 248.430 536.749
 

 total amount of memory used by VASP MPI-rank0   101714. kBytes
=======================================================================

   base      :      30000. kBytes
   nonlr-proj:      11807. kBytes
   fftplans  :       7799. kBytes
   grid      :      12279. kBytes
   one-center:        124. kBytes
   wavefun   :      39705. kBytes
 
  
  
 General timing and accounting informations for this job:
 ========================================================
  
                  Total CPU time used (sec):      256.994
                            User time (sec):      252.717
                          System time (sec):        4.277
                         Elapsed time (sec):      259.857
  
                   Maximum memory used (kb):      187528.
                   Average memory used (kb):           0.
  
                          Minor page faults:       119459
                          Major page faults:            0
                 Voluntary context switches:         4459
